
     Program PWSCF v.7.5 starts on 31Jan2026 at 23:30:56 

     This program is part of the open-source Quantum ESPRESSO suite
     for quantum simulation of materials; please cite
         "P. Giannozzi et al., J. Phys.:Condens. Matter 21 395502 (2009);
         "P. Giannozzi et al., J. Phys.:Condens. Matter 29 465901 (2017);
         "P. Giannozzi et al., J. Chem. Phys. 152 154105 (2020);
          URL http://www.quantum-espresso.org", 
     in publications or presentations arising from this work. More details at
     http://www.quantum-espresso.org/quote

     Parallel version (MPI), running on     1 processors

     MPI processes distributed on     1 nodes
     0 MiB available memory on the printing compute node when the environment starts

     Waiting for input...
     Reading input from standard input
     Message from routine read_cards :
     DEPRECATED: no units specified in ATOMIC_POSITIONS card
     Message from routine read_cards :
     ATOMIC_POSITIONS: units set to alat

     Current dimensions of program PWSCF are:
     Max number of different atomic species (ntypx) = 10
     Max number of k-points (npk) =  40000
     Max angular momentum in pseudopotentials (lmaxx) =  4
     file Li.pbe-mt_fhi.UPF: wavefunction(s)  2p 4f renormalized

     IMPORTANT: XC functional enforced from input :
     Exchange-correlation= PZ
                           (   1   1   0   0   0   0   0)
     Any further DFT definition will be discarded
     Please, verify this is what you really want


     Subspace diagonalization in iterative solution of the eigenvalue problem:
     a serial algorithm will be used


     G-vector sticks info
     --------------------
     sticks:   dense  smooth     PW     G-vecs:    dense   smooth      PW
     Sum         181     181     63                 1553     1553     321

     Using Slab Decomposition



     bravais-lattice index     =            3
     lattice parameter (alat)  =       6.3700  a.u.
     unit-cell volume          =     129.2374 (a.u.)^3
     number of atoms/cell      =            1
     number of atomic types    =            1
     number of electrons       =         1.00
     number of Kohn-Sham states=            5
     kinetic-energy cutoff     =      20.0000  Ry
     charge density cutoff     =      80.0000  Ry
     scf convergence threshold =      1.0E-08
     mixing beta               =       0.7000
     number of iterations used =            8  plain     mixing
     Exchange-correlation= PZ
                           (   1   1   0   0   0   0   0)

     celldm(1)=   6.370000  celldm(2)=   0.000000  celldm(3)=   0.000000
     celldm(4)=   0.000000  celldm(5)=   0.000000  celldm(6)=   0.000000

     crystal axes: (cart. coord. in units of alat)
               a(1) = (   0.500000   0.500000   0.500000 )  
               a(2) = (  -0.500000   0.500000   0.500000 )  
               a(3) = (  -0.500000  -0.500000   0.500000 )  

     reciprocal axes: (cart. coord. in units 2 pi/alat)
               b(1) = (  1.000000  0.000000  1.000000 )  
               b(2) = ( -1.000000  1.000000  0.000000 )  
               b(3) = (  0.000000 -1.000000  1.000000 )  


     PseudoPot. # 1 for Li read from file:
     ./pseudopot/Li.pbe-mt_fhi.UPF
     MD5 check sum: 3419f5616d131090147e867976aae79b
     Pseudo is Norm-conserving + core correction, Zval =  1.0
     Generated using FHI98PP, converted with fhi2upf.x v.5.0.2
     Using radial grid of  433 points,  3 beta functions with: 
                l(1) =   0
                l(2) =   1
                l(3) =   3

     atomic species   valence    mass     pseudopotential
     Li                1.00     6.94000     Li( 1.00)

     48 Sym. Ops., with inversion, found



   Cartesian axes

     site n.     atom                  positions (alat units)
         1        Li     tau(   1) = (   0.0000000   0.0000000   0.0000000  )

     number of k points=    44  Methfessel-Paxton smearing, width (Ry)=  0.0100
                       cart. coord. in units 2pi/alat
        k(    1) = (   0.0000000   0.0000000   0.1000000), wk =   0.0120000
        k(    2) = (   0.0000000  -0.1000000   0.2000000), wk =   0.0480000
        k(    3) = (   0.0000000  -0.2000000   0.3000000), wk =   0.0480000
        k(    4) = (   0.0000000  -0.3000000   0.4000000), wk =   0.0480000
        k(    5) = (   0.0000000  -0.4000000   0.5000000), wk =   0.0480000
        k(    6) = (  -0.1000000   0.1000000   0.1000000), wk =   0.0160000
        k(    7) = (  -0.1000000  -0.1000000   0.3000000), wk =   0.0480000
        k(    8) = (  -0.1000000  -0.2000000   0.4000000), wk =   0.0960000
        k(    9) = (  -0.1000000  -0.3000000   0.5000000), wk =   0.0960000
        k(   10) = (  -0.1000000   0.6000000  -0.4000000), wk =   0.0480000
        k(   11) = (  -0.2000000   0.2000000   0.1000000), wk =   0.0480000
        k(   12) = (  -0.2000000  -0.2000000   0.5000000), wk =   0.0480000
        k(   13) = (  -0.2000000   0.7000000  -0.4000000), wk =   0.0960000
        k(   14) = (  -0.3000000   0.3000000   0.1000000), wk =   0.0480000
        k(   15) = (  -0.3000000   0.2000000   0.2000000), wk =   0.0480000
        k(   16) = (  -0.3000000   0.7000000  -0.3000000), wk =   0.0160000
        k(   17) = (  -0.4000000   0.4000000   0.1000000), wk =   0.0480000
        k(   18) = (  -0.4000000   0.3000000   0.2000000), wk =   0.0960000
        k(   19) = (   0.5000000  -0.5000000   0.1000000), wk =   0.0240000
        k(   20) = (   0.5000000  -0.6000000   0.2000000), wk =   0.0960000
        k(   21) = (   0.5000000  -0.7000000   0.3000000), wk =   0.0480000
        k(   22) = (   0.4000000  -0.6000000   0.3000000), wk =   0.0480000
        k(   23) = (   0.0000000   0.0000000   0.3000000), wk =   0.0120000
        k(   24) = (   0.0000000  -0.1000000   0.4000000), wk =   0.0480000
        k(   25) = (   0.0000000  -0.2000000   0.5000000), wk =   0.0480000
        k(   26) = (   0.0000000  -0.3000000   0.6000000), wk =   0.0480000
        k(   27) = (  -0.1000000  -0.1000000   0.5000000), wk =   0.0480000
        k(   28) = (  -0.1000000  -0.2000000   0.6000000), wk =   0.0960000
        k(   29) = (  -0.1000000   0.7000000  -0.3000000), wk =   0.0480000
        k(   30) = (  -0.2000000   0.8000000  -0.3000000), wk =   0.0480000
        k(   31) = (  -0.3000000   0.3000000   0.3000000), wk =   0.0160000
        k(   32) = (   0.6000000  -0.6000000   0.3000000), wk =   0.0480000
        k(   33) = (   0.5000000  -0.5000000   0.3000000), wk =   0.0240000
        k(   34) = (   0.5000000  -0.6000000   0.4000000), wk =   0.0480000
        k(   35) = (   0.0000000   0.0000000   0.5000000), wk =   0.0120000
        k(   36) = (   0.0000000  -0.1000000   0.6000000), wk =   0.0480000
        k(   37) = (   0.0000000  -0.2000000   0.7000000), wk =   0.0480000
        k(   38) = (  -0.1000000  -0.1000000   0.7000000), wk =   0.0480000
        k(   39) = (  -0.1000000   0.8000000  -0.2000000), wk =   0.0480000
        k(   40) = (   0.5000000  -0.5000000   0.5000000), wk =   0.0040000
        k(   41) = (   0.0000000   0.0000000   0.7000000), wk =   0.0120000
        k(   42) = (   0.0000000  -0.1000000   0.8000000), wk =   0.0480000
        k(   43) = (  -0.1000000   0.9000000  -0.1000000), wk =   0.0160000
        k(   44) = (   0.0000000   0.0000000   0.9000000), wk =   0.0120000

     Dense  grid:     1553 G-vectors     FFT dimensions: (  15,  15,  15)

     Estimated max dynamical RAM per process >       1.93 MB

     Initial potential from superposition of free atoms

     starting charge       0.9960, renormalised to       1.0000
     Starting wfcs are   16 randomized atomic wfcs

     total cpu time spent up to now is        0.1 secs

     Self-consistent Calculation

     iteration #  1     ecut=    20.00 Ry     beta= 0.70
     Davidson diagonalization with overlap
     ethr =  1.00E-02,  avg # of iterations =  4.4

     Threshold (ethr) on eigenvalues was too large:
     Diagonalizing with lowered threshold

     Davidson diagonalization with overlap
     ethr =  2.00E-05,  avg # of iterations =  3.7

     total cpu time spent up to now is        0.2 secs

     total energy              =      -0.68950283 Ry
     estimated scf accuracy    <       0.00019932 Ry

     iteration #  2     ecut=    20.00 Ry     beta= 0.70
     Davidson diagonalization with overlap
     ethr =  1.99E-05,  avg # of iterations =  1.0

     total cpu time spent up to now is        0.2 secs

     total energy              =      -0.68950027 Ry
     estimated scf accuracy    <       0.00001728 Ry

     iteration #  3     ecut=    20.00 Ry     beta= 0.70
     Davidson diagonalization with overlap
     ethr =  1.73E-06,  avg # of iterations =  1.6

     total cpu time spent up to now is        0.3 secs

     End of self-consistent calculation

          k = 0.0000 0.0000 0.1000 (   197 PWs)   bands (ev):

    -3.0236  15.0757  15.0757  15.3733  19.3506

          k = 0.0000-0.1000 0.2000 (   196 PWs)   bands (ev):

    -2.6314  12.7961  13.7007  14.8208  17.6051

          k = 0.0000-0.2000 0.3000 (   193 PWs)   bands (ev):

    -1.8494   9.5620  12.3525  13.9784  16.8249

          k = 0.0000-0.3000 0.4000 (   190 PWs)   bands (ev):

    -0.7073   6.5980  11.3950  13.2392  15.7906

          k = 0.0000-0.4000 0.5000 (   190 PWs)   bands (ev):

     0.5597   4.3918  10.9061  12.8337  15.2706

          k =-0.1000 0.1000 0.1000 (   198 PWs)   bands (ev):

    -2.8280  14.0580  14.4253  14.4253  18.6196

          k =-0.1000-0.1000 0.3000 (   199 PWs)   bands (ev):

    -2.0414  10.9842  11.5926  14.1104  16.6922

          k =-0.1000-0.2000 0.4000 (   192 PWs)   bands (ev):

    -1.0649   8.0691  10.3303  13.3071  16.7008

          k =-0.1000-0.3000 0.5000 (   191 PWs)   bands (ev):

     0.2269   5.4324   9.6277  12.7060  16.7749

          k =-0.1000 0.6000-0.4000 (   195 PWs)   bands (ev):

     1.1712   4.0270   9.3928  12.4920  16.7152

          k =-0.2000 0.2000 0.1000 (   195 PWs)   bands (ev):

    -2.2409  11.2250  12.8462  13.1791  18.0871

          k =-0.2000-0.2000 0.5000 (   194 PWs)   bands (ev):

     0.1008   6.3196   8.4495  12.8100  16.9508

          k =-0.2000 0.7000-0.4000 (   197 PWs)   bands (ev):

     1.5005   4.3416   7.7162  12.5062  17.4956

          k =-0.3000 0.3000 0.1000 (   190 PWs)   bands (ev):

    -1.2707   8.0303  11.8182  12.0868  17.3430

          k =-0.3000 0.2000 0.2000 (   187 PWs)   bands (ev):

    -1.4584   9.3734  10.4352  11.9398  18.9698

          k =-0.3000 0.7000-0.3000 (   197 PWs)   bands (ev):

     2.9848   2.9848   6.9717  12.4432  18.8222

          k =-0.4000 0.4000 0.1000 (   192 PWs)   bands (ev):

     0.0039   5.3554  11.1719  11.3886  16.7440

          k =-0.4000 0.3000 0.2000 (   191 PWs)   bands (ev):

    -0.3021   6.6598   9.2727  11.2154  19.0781

          k = 0.5000-0.5000 0.1000 (   192 PWs)   bands (ev):

     0.9128   3.9727  10.9527  11.1511  16.5280

          k = 0.5000-0.6000 0.2000 (   195 PWs)   bands (ev):

     1.0376   4.4215   8.7721  10.8436  18.9268

          k = 0.5000-0.7000 0.3000 (   196 PWs)   bands (ev):

     1.0315   5.0597   7.5163  10.7871  20.5098

          k = 0.4000-0.6000 0.3000 (   197 PWs)   bands (ev):

     2.2139   3.6719   7.0346  10.6419  20.6223

          k = 0.0000 0.0000 0.3000 (   201 PWs)   bands (ev):

    -2.2346  12.1883  12.1883  14.3173  15.1251

          k = 0.0000-0.1000 0.4000 (   192 PWs)   bands (ev):

    -1.4422   9.6783  10.7821  13.7129  14.6233

          k = 0.0000-0.2000 0.5000 (   192 PWs)   bands (ev):

    -0.2788   6.8202   9.7990  13.0632  15.4549

          k = 0.0000-0.3000 0.6000 (   199 PWs)   bands (ev):

     1.0460   4.5898   9.2998  12.7157  16.5293

          k =-0.1000-0.1000 0.5000 (   195 PWs)   bands (ev):

    -0.4484   8.0026   9.0732  13.7713  13.7994

          k =-0.1000-0.2000 0.6000 (   196 PWs)   bands (ev):

     0.8885   5.6715   8.1987  13.2642  14.8142

          k =-0.1000 0.7000-0.3000 (   200 PWs)   bands (ev):

     1.9436   4.2149   7.9431  13.0828  15.7597

          k =-0.2000 0.8000-0.3000 (   201 PWs)   bands (ev):

     2.3624   4.2550   7.0610  13.8999  15.0026

          k =-0.3000 0.3000 0.3000 (   186 PWs)   bands (ev):

    -0.4825   8.1432   8.1432  10.4859  20.6622

          k = 0.6000-0.6000 0.3000 (   190 PWs)   bands (ev):

     0.8525   5.5594   7.3904   9.9625  21.7852

          k = 0.5000-0.5000 0.3000 (   194 PWs)   bands (ev):

     1.9562   4.0121   7.1379   9.8040  21.6864

          k = 0.5000-0.6000 0.4000 (   192 PWs)   bands (ev):

     2.3524   4.2940   5.9301   9.5835  22.9210

          k = 0.0000 0.0000 0.5000 (   201 PWs)   bands (ev):

    -0.6295   9.3516   9.3516  11.9522  13.6290

          k = 0.0000-0.1000 0.6000 (   197 PWs)   bands (ev):

     0.5725   7.2536   8.3590  11.7219  13.6784

          k = 0.0000-0.2000 0.7000 (   202 PWs)   bands (ev):

     2.0040   5.0450   7.8556  11.9533  14.6128

          k =-0.1000-0.1000 0.7000 (   203 PWs)   bands (ev):

     1.9638   5.9612   7.2507  11.7527  13.5961

          k =-0.1000 0.8000-0.2000 (   204 PWs)   bands (ev):

     3.2173   4.5593   6.8922  12.2510  13.9908

          k = 0.5000-0.5000 0.5000 (   180 PWs)   bands (ev):

     4.0379   4.0379   4.0379   9.2812  25.0873

          k = 0.0000 0.0000 0.7000 (   204 PWs)   bands (ev):

     1.8287   7.3612   7.3612   9.8363  13.1580

          k = 0.0000-0.1000 0.8000 (   204 PWs)   bands (ev):

     3.3890   5.7943   6.8563  10.1728  12.4069

          k =-0.1000 0.9000-0.1000 (   206 PWs)   bands (ev):

     4.9320   4.9320   6.3840  10.7174  10.7175

          k = 0.0000 0.0000 0.9000 (   196 PWs)   bands (ev):

     5.0577   6.3513   6.3513   8.7783   9.9924

     the Fermi energy is     0.6033 ev

!    total energy              =      -0.68950032 Ry
     estimated scf accuracy    <          2.5E-10 Ry
     smearing contrib. (-TS)   =      -0.00007691 Ry
     internal energy E=F+TS    =      -0.68942341 Ry

     The total energy is F=E-TS. E is the sum of the following terms:
     one-electron contribution =       0.43064056 Ry
     hartree contribution      =       0.00109207 Ry
     xc contribution           =      -0.54984777 Ry
     ewald contribution        =      -0.57130827 Ry

     convergence has been achieved in   3 iterations

     Forces acting on atoms (cartesian axes, Ry/au):

     atom    1 type  1   force =     0.00000000    0.00000000    0.00000000

     Total force =     0.000000     Total SCF correction =     0.000000


     Computing stress (Cartesian axis) and pressure

          total   stress  (Ry/bohr**3)                   (kbar)     P=       -4.13
  -0.00002809  -0.00000000   0.00000000           -4.13       -0.00        0.00
  -0.00000000  -0.00002809   0.00000000           -0.00       -4.13        0.00
   0.00000000   0.00000000  -0.00002809            0.00        0.00       -4.13


     Writing all to output data dir ./QE-outdir/li.save/ :
     XML data file, charge density, pseudopotentials, collected wavefunctions

     init_run     :      0.04s CPU      0.06s WALL (       1 calls)
     electrons    :      0.13s CPU      0.21s WALL (       1 calls)
     forces       :      0.00s CPU      0.00s WALL (       1 calls)
     stress       :      0.02s CPU      0.02s WALL (       1 calls)

     Called by init_run:
     wfcinit      :      0.03s CPU      0.04s WALL (       1 calls)
     potinit      :      0.00s CPU      0.00s WALL (       1 calls)
     hinit0       :      0.01s CPU      0.01s WALL (       1 calls)

     Called by electrons:
     c_bands      :      0.12s CPU      0.20s WALL (       4 calls)
     sum_band     :      0.01s CPU      0.01s WALL (       4 calls)
     v_of_rho     :      0.00s CPU      0.00s WALL (       4 calls)
     mix_rho      :      0.00s CPU      0.00s WALL (       4 calls)

     Called by c_bands:
     init_us_2    :      0.01s CPU      0.01s WALL (     484 calls)
     cegterg      :      0.11s CPU      0.19s WALL (     176 calls)

     Called by *egterg:
     cdiaghg      :      0.07s CPU      0.16s WALL (     602 calls)
     h_psi        :      0.05s CPU      0.06s WALL (     690 calls)
     g_psi        :      0.00s CPU      0.00s WALL (     470 calls)

     Called by h_psi:
     h_psi:calbec :      0.00s CPU      0.00s WALL (     690 calls)
     vloc_psi     :      0.05s CPU      0.05s WALL (     690 calls)
                                        0.00s GPU  (     690 calls)
     add_vuspsi   :      0.00s CPU      0.00s WALL (     690 calls)

     General routines
     calbec       :      0.01s CPU      0.01s WALL (    1438 calls)
     fft          :      0.00s CPU      0.00s WALL (      20 calls)
     ffts         :      0.00s CPU      0.00s WALL (       4 calls)
     fftw         :      0.04s CPU      0.05s WALL (    7266 calls)

     Parallel routines

     PWSCF        :      0.20s CPU      0.31s WALL


   This run was terminated on:  23:30:57  31Jan2026            

=------------------------------------------------------------------------------=
   JOB DONE.
=------------------------------------------------------------------------------=
