
     Program PWSCF v.7.5 starts on 26Jan2026 at 14: 5:34 

     This program is part of the open-source Quantum ESPRESSO suite
     for quantum simulation of materials; please cite
         "P. Giannozzi et al., J. Phys.:Condens. Matter 21 395502 (2009);
         "P. Giannozzi et al., J. Phys.:Condens. Matter 29 465901 (2017);
         "P. Giannozzi et al., J. Chem. Phys. 152 154105 (2020);
          URL http://www.quantum-espresso.org", 
     in publications or presentations arising from this work. More details at
     http://www.quantum-espresso.org/quote

     Parallel version (MPI), running on     1 processors

     MPI processes distributed on     1 nodes
     0 MiB available memory on the printing compute node when the environment starts

     Waiting for input...
     Reading input from standard input
     Message from routine read_cards :
     DEPRECATED: no units specified in ATOMIC_POSITIONS card
     Message from routine read_cards :
     ATOMIC_POSITIONS: units set to alat

     Current dimensions of program PWSCF are:
     Max number of different atomic species (ntypx) = 10
     Max number of k-points (npk) =  40000
     Max angular momentum in pseudopotentials (lmaxx) =  4
     file Li.pbe-mt_fhi.UPF: wavefunction(s)  2p 4f renormalized

     IMPORTANT: XC functional enforced from input :
     Exchange-correlation= PZ
                           (   1   1   0   0   0   0   0)
     Any further DFT definition will be discarded
     Please, verify this is what you really want


     Subspace diagonalization in iterative solution of the eigenvalue problem:
     a serial algorithm will be used


     G-vector sticks info
     --------------------
     sticks:   dense  smooth     PW     G-vecs:    dense   smooth      PW
     Sum         173     173     63                 1481     1481     321

     Using Slab Decomposition



     bravais-lattice index     =            3
     lattice parameter (alat)  =       6.2500  a.u.
     unit-cell volume          =     122.0703 (a.u.)^3
     number of atoms/cell      =            1
     number of atomic types    =            1
     number of electrons       =         1.00
     number of Kohn-Sham states=            5
     kinetic-energy cutoff     =      20.0000  Ry
     charge density cutoff     =      80.0000  Ry
     scf convergence threshold =      1.0E-08
     mixing beta               =       0.7000
     number of iterations used =            8  plain     mixing
     Exchange-correlation= PZ
                           (   1   1   0   0   0   0   0)

     celldm(1)=   6.250000  celldm(2)=   0.000000  celldm(3)=   0.000000
     celldm(4)=   0.000000  celldm(5)=   0.000000  celldm(6)=   0.000000

     crystal axes: (cart. coord. in units of alat)
               a(1) = (   0.500000   0.500000   0.500000 )  
               a(2) = (  -0.500000   0.500000   0.500000 )  
               a(3) = (  -0.500000  -0.500000   0.500000 )  

     reciprocal axes: (cart. coord. in units 2 pi/alat)
               b(1) = (  1.000000  0.000000  1.000000 )  
               b(2) = ( -1.000000  1.000000  0.000000 )  
               b(3) = (  0.000000 -1.000000  1.000000 )  


     PseudoPot. # 1 for Li read from file:
     ./pseudopot/Li.pbe-mt_fhi.UPF
     MD5 check sum: 3419f5616d131090147e867976aae79b
     Pseudo is Norm-conserving + core correction, Zval =  1.0
     Generated using FHI98PP, converted with fhi2upf.x v.5.0.2
     Using radial grid of  433 points,  3 beta functions with: 
                l(1) =   0
                l(2) =   1
                l(3) =   3

     atomic species   valence    mass     pseudopotential
     Li                1.00     6.94000     Li( 1.00)

     48 Sym. Ops., with inversion, found



   Cartesian axes

     site n.     atom                  positions (alat units)
         1        Li     tau(   1) = (   0.0000000   0.0000000   0.0000000  )

     number of k points=    44  Methfessel-Paxton smearing, width (Ry)=  0.0100
                       cart. coord. in units 2pi/alat
        k(    1) = (   0.0000000   0.0000000   0.1000000), wk =   0.0120000
        k(    2) = (   0.0000000  -0.1000000   0.2000000), wk =   0.0480000
        k(    3) = (   0.0000000  -0.2000000   0.3000000), wk =   0.0480000
        k(    4) = (   0.0000000  -0.3000000   0.4000000), wk =   0.0480000
        k(    5) = (   0.0000000  -0.4000000   0.5000000), wk =   0.0480000
        k(    6) = (  -0.1000000   0.1000000   0.1000000), wk =   0.0160000
        k(    7) = (  -0.1000000  -0.1000000   0.3000000), wk =   0.0480000
        k(    8) = (  -0.1000000  -0.2000000   0.4000000), wk =   0.0960000
        k(    9) = (  -0.1000000  -0.3000000   0.5000000), wk =   0.0960000
        k(   10) = (  -0.1000000   0.6000000  -0.4000000), wk =   0.0480000
        k(   11) = (  -0.2000000   0.2000000   0.1000000), wk =   0.0480000
        k(   12) = (  -0.2000000  -0.2000000   0.5000000), wk =   0.0480000
        k(   13) = (  -0.2000000   0.7000000  -0.4000000), wk =   0.0960000
        k(   14) = (  -0.3000000   0.3000000   0.1000000), wk =   0.0480000
        k(   15) = (  -0.3000000   0.2000000   0.2000000), wk =   0.0480000
        k(   16) = (  -0.3000000   0.7000000  -0.3000000), wk =   0.0160000
        k(   17) = (  -0.4000000   0.4000000   0.1000000), wk =   0.0480000
        k(   18) = (  -0.4000000   0.3000000   0.2000000), wk =   0.0960000
        k(   19) = (   0.5000000  -0.5000000   0.1000000), wk =   0.0240000
        k(   20) = (   0.5000000  -0.6000000   0.2000000), wk =   0.0960000
        k(   21) = (   0.5000000  -0.7000000   0.3000000), wk =   0.0480000
        k(   22) = (   0.4000000  -0.6000000   0.3000000), wk =   0.0480000
        k(   23) = (   0.0000000   0.0000000   0.3000000), wk =   0.0120000
        k(   24) = (   0.0000000  -0.1000000   0.4000000), wk =   0.0480000
        k(   25) = (   0.0000000  -0.2000000   0.5000000), wk =   0.0480000
        k(   26) = (   0.0000000  -0.3000000   0.6000000), wk =   0.0480000
        k(   27) = (  -0.1000000  -0.1000000   0.5000000), wk =   0.0480000
        k(   28) = (  -0.1000000  -0.2000000   0.6000000), wk =   0.0960000
        k(   29) = (  -0.1000000   0.7000000  -0.3000000), wk =   0.0480000
        k(   30) = (  -0.2000000   0.8000000  -0.3000000), wk =   0.0480000
        k(   31) = (  -0.3000000   0.3000000   0.3000000), wk =   0.0160000
        k(   32) = (   0.6000000  -0.6000000   0.3000000), wk =   0.0480000
        k(   33) = (   0.5000000  -0.5000000   0.3000000), wk =   0.0240000
        k(   34) = (   0.5000000  -0.6000000   0.4000000), wk =   0.0480000
        k(   35) = (   0.0000000   0.0000000   0.5000000), wk =   0.0120000
        k(   36) = (   0.0000000  -0.1000000   0.6000000), wk =   0.0480000
        k(   37) = (   0.0000000  -0.2000000   0.7000000), wk =   0.0480000
        k(   38) = (  -0.1000000  -0.1000000   0.7000000), wk =   0.0480000
        k(   39) = (  -0.1000000   0.8000000  -0.2000000), wk =   0.0480000
        k(   40) = (   0.5000000  -0.5000000   0.5000000), wk =   0.0040000
        k(   41) = (   0.0000000   0.0000000   0.7000000), wk =   0.0120000
        k(   42) = (   0.0000000  -0.1000000   0.8000000), wk =   0.0480000
        k(   43) = (  -0.1000000   0.9000000  -0.1000000), wk =   0.0160000
        k(   44) = (   0.0000000   0.0000000   0.9000000), wk =   0.0120000

     Dense  grid:     1481 G-vectors     FFT dimensions: (  15,  15,  15)

     Estimated max dynamical RAM per process >       1.86 MB

     Initial potential from superposition of free atoms

     starting charge       0.9960, renormalised to       1.0000
     Starting wfcs are   16 randomized atomic wfcs

     total cpu time spent up to now is        0.1 secs

     Self-consistent Calculation

     iteration #  1     ecut=    20.00 Ry     beta= 0.70
     Davidson diagonalization with overlap
     ethr =  1.00E-02,  avg # of iterations =  4.2

     Threshold (ethr) on eigenvalues was too large:
     Diagonalizing with lowered threshold

     Davidson diagonalization with overlap
     ethr =  2.27E-05,  avg # of iterations =  3.8

     total cpu time spent up to now is        0.2 secs

     total energy              =      -0.68949030 Ry
     estimated scf accuracy    <       0.00022724 Ry

     iteration #  2     ecut=    20.00 Ry     beta= 0.70
     Davidson diagonalization with overlap
     ethr =  2.27E-05,  avg # of iterations =  1.1

     total cpu time spent up to now is        0.2 secs

     total energy              =      -0.68948728 Ry
     estimated scf accuracy    <       0.00001965 Ry

     iteration #  3     ecut=    20.00 Ry     beta= 0.70
     Davidson diagonalization with overlap
     ethr =  1.96E-06,  avg # of iterations =  1.4

     total cpu time spent up to now is        0.3 secs

     End of self-consistent calculation

          k = 0.0000 0.0000 0.1000 (   185 PWs)   bands (ev):

    -2.9371  15.8331  15.8331  16.1491  20.1939

          k = 0.0000-0.1000 0.2000 (   185 PWs)   bands (ev):

    -2.5371  13.4473  14.3902  15.5669  18.4029

          k = 0.0000-0.2000 0.3000 (   186 PWs)   bands (ev):

    -1.7391  10.0839  12.9830  14.6786  17.5852

          k = 0.0000-0.3000 0.4000 (   182 PWs)   bands (ev):

    -0.5748   7.0185  11.9857  13.9030  16.5105

          k = 0.0000-0.4000 0.5000 (   183 PWs)   bands (ev):

     0.7074   4.7567  11.4767  13.4782  15.9702

          k =-0.1000 0.1000 0.1000 (   189 PWs)   bands (ev):

    -2.7378  14.7805  15.1395  15.1395  19.4636

          k =-0.1000-0.1000 0.3000 (   186 PWs)   bands (ev):

    -1.9348  11.5406  12.2118  14.8212  17.4540

          k =-0.1000-0.2000 0.4000 (   181 PWs)   bands (ev):

    -0.9375   8.5225  10.8968  13.9755  17.4733

          k =-0.1000-0.3000 0.5000 (   183 PWs)   bands (ev):

     0.3792   5.8044  10.1654  13.3453  17.5677

          k =-0.1000 0.6000-0.4000 (   188 PWs)   bands (ev):

     1.3304   4.3727   9.9213  13.1211  17.5092

          k =-0.2000 0.2000 0.1000 (   183 PWs)   bands (ev):

    -2.1387  11.8066  13.5163  13.8275  18.9201

          k =-0.2000-0.2000 0.5000 (   181 PWs)   bands (ev):

     0.2551   6.6830   8.9814  13.4563  17.7248

          k =-0.2000 0.7000-0.4000 (   184 PWs)   bands (ev):

     1.6840   4.6444   8.2277  13.1399  18.3035

          k =-0.3000 0.3000 0.1000 (   179 PWs)   bands (ev):

    -1.1489   8.4934  12.4501  12.6850  18.1408

          k =-0.3000 0.2000 0.2000 (   182 PWs)   bands (ev):

    -1.3401   9.8591  11.0048  12.5730  19.8585

          k =-0.3000 0.7000-0.3000 (   185 PWs)   bands (ev):

     3.2155   3.2155   7.4847  13.0769  19.6687

          k =-0.4000 0.4000 0.1000 (   183 PWs)   bands (ev):

     0.1485   5.7351  11.7792  11.9562  17.5141

          k =-0.4000 0.3000 0.2000 (   181 PWs)   bands (ev):

    -0.1587   7.0540   9.7907  11.8322  19.9687

          k = 0.5000-0.5000 0.1000 (   188 PWs)   bands (ev):

     1.0618   4.3274  11.5509  11.7084  17.2885

          k = 0.5000-0.6000 0.2000 (   182 PWs)   bands (ev):

     1.2035   4.7558   9.2674  11.4513  19.8079

          k = 0.5000-0.7000 0.3000 (   181 PWs)   bands (ev):

     1.2069   5.3723   7.9979  11.4025  21.4361

          k = 0.4000-0.6000 0.3000 (   179 PWs)   bands (ev):

     2.4144   3.9429   7.5038  11.2570  21.5795

          k = 0.0000 0.0000 0.3000 (   177 PWs)   bands (ev):

    -2.1315  12.8079  12.8079  15.0737  15.8046

          k = 0.0000-0.1000 0.4000 (   185 PWs)   bands (ev):

    -1.3219  10.1948  11.3408  14.4214  15.3211

          k = 0.0000-0.2000 0.5000 (   185 PWs)   bands (ev):

    -0.1329   7.2359  10.3172  13.7507  16.1876

          k = 0.0000-0.3000 0.6000 (   183 PWs)   bands (ev):

     1.2129   4.9460   9.7981  13.3930  17.3117

          k =-0.1000-0.1000 0.5000 (   182 PWs)   bands (ev):

    -0.3041   8.4366   9.5898  14.4419  14.5089

          k =-0.1000-0.2000 0.6000 (   184 PWs)   bands (ev):

     1.0637   6.0285   8.6866  13.9524  15.5220

          k =-0.1000 0.7000-0.3000 (   181 PWs)   bands (ev):

     2.1337   4.5411   8.4214  13.7665  16.5065

          k =-0.2000 0.8000-0.3000 (   191 PWs)   bands (ev):

     2.5769   4.5363   7.5491  14.6227  15.6954

          k =-0.3000 0.3000 0.3000 (   183 PWs)   bands (ev):

    -0.3424   8.5780   8.5780  11.1360  21.6217

          k = 0.6000-0.6000 0.3000 (   182 PWs)   bands (ev):

     1.0239   5.9034   7.7948  10.6122  22.7912

          k = 0.5000-0.5000 0.3000 (   176 PWs)   bands (ev):

     2.1465   4.3177   7.5322  10.4542  22.6828

          k = 0.5000-0.6000 0.4000 (   184 PWs)   bands (ev):

     2.5652   4.5758   6.2920  10.2442  23.9843

          k = 0.0000 0.0000 0.5000 (   184 PWs)   bands (ev):

    -0.4881   9.8512   9.8512  12.5087  14.3999

          k = 0.0000-0.1000 0.6000 (   188 PWs)   bands (ev):

     0.7450   7.6710   8.8175  12.2905  14.4460

          k = 0.0000-0.2000 0.7000 (   195 PWs)   bands (ev):

     2.2081   5.3949   8.2939  12.5807  15.3647

          k =-0.1000-0.1000 0.7000 (   193 PWs)   bands (ev):

     2.1752   6.3132   7.6929  12.3139  14.3548

          k =-0.1000 0.8000-0.2000 (   192 PWs)   bands (ev):

     3.4582   4.8692   7.3283  12.8551  14.6434

          k = 0.5000-0.5000 0.5000 (   180 PWs)   bands (ev):

     4.3092   4.3092   4.3092   9.9608  26.2410

          k = 0.0000 0.0000 0.7000 (   188 PWs)   bands (ev):

     2.0405   7.7801   7.7801  10.3107  13.9154

          k = 0.0000-0.1000 0.8000 (   188 PWs)   bands (ev):

     3.6472   6.1540   7.2549  10.6758  13.0269

          k =-0.1000 0.9000-0.1000 (   188 PWs)   bands (ev):

     5.2432   5.2432   6.7849  11.2380  11.2380

          k = 0.0000 0.0000 0.9000 (   188 PWs)   bands (ev):

     5.3803   6.7286   6.7286   9.2116  10.4866

     the Fermi energy is     0.7639 ev

!    total energy              =      -0.68948734 Ry
     estimated scf accuracy    <          2.2E-10 Ry
     smearing contrib. (-TS)   =      -0.00007758 Ry
     internal energy E=F+TS    =      -0.68940976 Ry

     The total energy is F=E-TS. E is the sum of the following terms:
     one-electron contribution =       0.44921571 Ry
     hartree contribution      =       0.00119388 Ry
     xc contribution           =      -0.55754197 Ry
     ewald contribution        =      -0.58227738 Ry

     convergence has been achieved in   3 iterations

     Forces acting on atoms (cartesian axes, Ry/au):

     atom    1 type  1   force =     0.00000000    0.00000000    0.00000000

     Total force =     0.000000     Total SCF correction =     0.000000


     Computing stress (Cartesian axis) and pressure

          total   stress  (Ry/bohr**3)                   (kbar)     P=        4.54
   0.00003087   0.00000000  -0.00000000            4.54        0.00       -0.00
   0.00000000   0.00003087   0.00000000            0.00        4.54        0.00
  -0.00000000   0.00000000   0.00003087           -0.00        0.00        4.54


     Writing all to output data dir ./QE-outdir/li.save/ :
     XML data file, charge density, pseudopotentials, collected wavefunctions

     init_run     :      0.04s CPU      0.05s WALL (       1 calls)
     electrons    :      0.12s CPU      0.21s WALL (       1 calls)
     forces       :      0.00s CPU      0.00s WALL (       1 calls)
     stress       :      0.02s CPU      0.02s WALL (       1 calls)

     Called by init_run:
     wfcinit      :      0.03s CPU      0.04s WALL (       1 calls)
     potinit      :      0.00s CPU      0.00s WALL (       1 calls)
     hinit0       :      0.01s CPU      0.01s WALL (       1 calls)

     Called by electrons:
     c_bands      :      0.11s CPU      0.20s WALL (       4 calls)
     sum_band     :      0.01s CPU      0.01s WALL (       4 calls)
     v_of_rho     :      0.00s CPU      0.00s WALL (       4 calls)
     mix_rho      :      0.00s CPU      0.00s WALL (       4 calls)

     Called by c_bands:
     init_us_2    :      0.01s CPU      0.01s WALL (     484 calls)
     cegterg      :      0.11s CPU      0.19s WALL (     176 calls)

     Called by *egterg:
     cdiaghg      :      0.07s CPU      0.16s WALL (     594 calls)
     h_psi        :      0.05s CPU      0.06s WALL (     682 calls)
     g_psi        :      0.00s CPU      0.00s WALL (     462 calls)

     Called by h_psi:
     h_psi:calbec :      0.00s CPU      0.00s WALL (     682 calls)
     vloc_psi     :      0.05s CPU      0.05s WALL (     682 calls)
                                        0.00s GPU  (     682 calls)
     add_vuspsi   :      0.00s CPU      0.00s WALL (     682 calls)

     General routines
     calbec       :      0.01s CPU      0.01s WALL (    1430 calls)
     fft          :      0.00s CPU      0.00s WALL (      20 calls)
     ffts         :      0.00s CPU      0.00s WALL (       4 calls)
     fftw         :      0.04s CPU      0.04s WALL (    7214 calls)

     Parallel routines

     PWSCF        :      0.19s CPU      0.30s WALL


   This run was terminated on:  14: 5:34  26Jan2026            

=------------------------------------------------------------------------------=
   JOB DONE.
=------------------------------------------------------------------------------=
