
     Program PWSCF v.7.5 starts on 26Jan2026 at 14: 5:35 

     This program is part of the open-source Quantum ESPRESSO suite
     for quantum simulation of materials; please cite
         "P. Giannozzi et al., J. Phys.:Condens. Matter 21 395502 (2009);
         "P. Giannozzi et al., J. Phys.:Condens. Matter 29 465901 (2017);
         "P. Giannozzi et al., J. Chem. Phys. 152 154105 (2020);
          URL http://www.quantum-espresso.org", 
     in publications or presentations arising from this work. More details at
     http://www.quantum-espresso.org/quote

     Parallel version (MPI), running on     1 processors

     MPI processes distributed on     1 nodes
     0 MiB available memory on the printing compute node when the environment starts

     Waiting for input...
     Reading input from standard input
     Message from routine read_cards :
     DEPRECATED: no units specified in ATOMIC_POSITIONS card
     Message from routine read_cards :
     ATOMIC_POSITIONS: units set to alat

     Current dimensions of program PWSCF are:
     Max number of different atomic species (ntypx) = 10
     Max number of k-points (npk) =  40000
     Max angular momentum in pseudopotentials (lmaxx) =  4
     file Li.pbe-mt_fhi.UPF: wavefunction(s)  2p 4f renormalized

     IMPORTANT: XC functional enforced from input :
     Exchange-correlation= PZ
                           (   1   1   0   0   0   0   0)
     Any further DFT definition will be discarded
     Please, verify this is what you really want


     Subspace diagonalization in iterative solution of the eigenvalue problem:
     a serial algorithm will be used


     G-vector sticks info
     --------------------
     sticks:   dense  smooth     PW     G-vecs:    dense   smooth      PW
     Sum         181     181     63                 1553     1553     321

     Using Slab Decomposition



     bravais-lattice index     =            3
     lattice parameter (alat)  =       6.4000  a.u.
     unit-cell volume          =     131.0720 (a.u.)^3
     number of atoms/cell      =            1
     number of atomic types    =            1
     number of electrons       =         1.00
     number of Kohn-Sham states=            5
     kinetic-energy cutoff     =      20.0000  Ry
     charge density cutoff     =      80.0000  Ry
     scf convergence threshold =      1.0E-08
     mixing beta               =       0.7000
     number of iterations used =            8  plain     mixing
     Exchange-correlation= PZ
                           (   1   1   0   0   0   0   0)

     celldm(1)=   6.400000  celldm(2)=   0.000000  celldm(3)=   0.000000
     celldm(4)=   0.000000  celldm(5)=   0.000000  celldm(6)=   0.000000

     crystal axes: (cart. coord. in units of alat)
               a(1) = (   0.500000   0.500000   0.500000 )  
               a(2) = (  -0.500000   0.500000   0.500000 )  
               a(3) = (  -0.500000  -0.500000   0.500000 )  

     reciprocal axes: (cart. coord. in units 2 pi/alat)
               b(1) = (  1.000000  0.000000  1.000000 )  
               b(2) = ( -1.000000  1.000000  0.000000 )  
               b(3) = (  0.000000 -1.000000  1.000000 )  


     PseudoPot. # 1 for Li read from file:
     ./pseudopot/Li.pbe-mt_fhi.UPF
     MD5 check sum: 3419f5616d131090147e867976aae79b
     Pseudo is Norm-conserving + core correction, Zval =  1.0
     Generated using FHI98PP, converted with fhi2upf.x v.5.0.2
     Using radial grid of  433 points,  3 beta functions with: 
                l(1) =   0
                l(2) =   1
                l(3) =   3

     atomic species   valence    mass     pseudopotential
     Li                1.00     6.94000     Li( 1.00)

     48 Sym. Ops., with inversion, found



   Cartesian axes

     site n.     atom                  positions (alat units)
         1        Li     tau(   1) = (   0.0000000   0.0000000   0.0000000  )

     number of k points=    44  Methfessel-Paxton smearing, width (Ry)=  0.0100
                       cart. coord. in units 2pi/alat
        k(    1) = (   0.0000000   0.0000000   0.1000000), wk =   0.0120000
        k(    2) = (   0.0000000  -0.1000000   0.2000000), wk =   0.0480000
        k(    3) = (   0.0000000  -0.2000000   0.3000000), wk =   0.0480000
        k(    4) = (   0.0000000  -0.3000000   0.4000000), wk =   0.0480000
        k(    5) = (   0.0000000  -0.4000000   0.5000000), wk =   0.0480000
        k(    6) = (  -0.1000000   0.1000000   0.1000000), wk =   0.0160000
        k(    7) = (  -0.1000000  -0.1000000   0.3000000), wk =   0.0480000
        k(    8) = (  -0.1000000  -0.2000000   0.4000000), wk =   0.0960000
        k(    9) = (  -0.1000000  -0.3000000   0.5000000), wk =   0.0960000
        k(   10) = (  -0.1000000   0.6000000  -0.4000000), wk =   0.0480000
        k(   11) = (  -0.2000000   0.2000000   0.1000000), wk =   0.0480000
        k(   12) = (  -0.2000000  -0.2000000   0.5000000), wk =   0.0480000
        k(   13) = (  -0.2000000   0.7000000  -0.4000000), wk =   0.0960000
        k(   14) = (  -0.3000000   0.3000000   0.1000000), wk =   0.0480000
        k(   15) = (  -0.3000000   0.2000000   0.2000000), wk =   0.0480000
        k(   16) = (  -0.3000000   0.7000000  -0.3000000), wk =   0.0160000
        k(   17) = (  -0.4000000   0.4000000   0.1000000), wk =   0.0480000
        k(   18) = (  -0.4000000   0.3000000   0.2000000), wk =   0.0960000
        k(   19) = (   0.5000000  -0.5000000   0.1000000), wk =   0.0240000
        k(   20) = (   0.5000000  -0.6000000   0.2000000), wk =   0.0960000
        k(   21) = (   0.5000000  -0.7000000   0.3000000), wk =   0.0480000
        k(   22) = (   0.4000000  -0.6000000   0.3000000), wk =   0.0480000
        k(   23) = (   0.0000000   0.0000000   0.3000000), wk =   0.0120000
        k(   24) = (   0.0000000  -0.1000000   0.4000000), wk =   0.0480000
        k(   25) = (   0.0000000  -0.2000000   0.5000000), wk =   0.0480000
        k(   26) = (   0.0000000  -0.3000000   0.6000000), wk =   0.0480000
        k(   27) = (  -0.1000000  -0.1000000   0.5000000), wk =   0.0480000
        k(   28) = (  -0.1000000  -0.2000000   0.6000000), wk =   0.0960000
        k(   29) = (  -0.1000000   0.7000000  -0.3000000), wk =   0.0480000
        k(   30) = (  -0.2000000   0.8000000  -0.3000000), wk =   0.0480000
        k(   31) = (  -0.3000000   0.3000000   0.3000000), wk =   0.0160000
        k(   32) = (   0.6000000  -0.6000000   0.3000000), wk =   0.0480000
        k(   33) = (   0.5000000  -0.5000000   0.3000000), wk =   0.0240000
        k(   34) = (   0.5000000  -0.6000000   0.4000000), wk =   0.0480000
        k(   35) = (   0.0000000   0.0000000   0.5000000), wk =   0.0120000
        k(   36) = (   0.0000000  -0.1000000   0.6000000), wk =   0.0480000
        k(   37) = (   0.0000000  -0.2000000   0.7000000), wk =   0.0480000
        k(   38) = (  -0.1000000  -0.1000000   0.7000000), wk =   0.0480000
        k(   39) = (  -0.1000000   0.8000000  -0.2000000), wk =   0.0480000
        k(   40) = (   0.5000000  -0.5000000   0.5000000), wk =   0.0040000
        k(   41) = (   0.0000000   0.0000000   0.7000000), wk =   0.0120000
        k(   42) = (   0.0000000  -0.1000000   0.8000000), wk =   0.0480000
        k(   43) = (  -0.1000000   0.9000000  -0.1000000), wk =   0.0160000
        k(   44) = (   0.0000000   0.0000000   0.9000000), wk =   0.0120000

     Dense  grid:     1553 G-vectors     FFT dimensions: (  15,  15,  15)

     Estimated max dynamical RAM per process >       1.94 MB

     Initial potential from superposition of free atoms

     starting charge       0.9960, renormalised to       1.0000
     Starting wfcs are   16 randomized atomic wfcs

     total cpu time spent up to now is        0.1 secs

     Self-consistent Calculation

     iteration #  1     ecut=    20.00 Ry     beta= 0.70
     Davidson diagonalization with overlap
     ethr =  1.00E-02,  avg # of iterations =  4.6

     Threshold (ethr) on eigenvalues was too large:
     Diagonalizing with lowered threshold

     Davidson diagonalization with overlap
     ethr =  1.94E-05,  avg # of iterations =  3.3

     total cpu time spent up to now is        0.2 secs

     total energy              =      -0.68944319 Ry
     estimated scf accuracy    <       0.00019321 Ry

     iteration #  2     ecut=    20.00 Ry     beta= 0.70
     Davidson diagonalization with overlap
     ethr =  1.93E-05,  avg # of iterations =  1.1

     total cpu time spent up to now is        0.2 secs

     total energy              =      -0.68944073 Ry
     estimated scf accuracy    <       0.00001678 Ry

     iteration #  3     ecut=    20.00 Ry     beta= 0.70
     Davidson diagonalization with overlap
     ethr =  1.68E-06,  avg # of iterations =  1.7

     total cpu time spent up to now is        0.3 secs

     End of self-consistent calculation

          k = 0.0000 0.0000 0.1000 (   197 PWs)   bands (ev):

    -3.0434  14.8939  14.8940  15.1865  19.1473

          k = 0.0000-0.1000 0.2000 (   198 PWs)   bands (ev):

    -2.6532  12.6392  13.5345  14.6413  17.4134

          k = 0.0000-0.2000 0.3000 (   193 PWs)   bands (ev):

    -1.8752   9.4364  12.2007  13.8099  16.6416

          k = 0.0000-0.3000 0.4000 (   192 PWs)   bands (ev):

    -0.7388   6.4971  11.2526  13.0794  15.6171

          k = 0.0000-0.4000 0.5000 (   193 PWs)   bands (ev):

     0.5242   4.3044  10.7687  12.6781  15.1020

          k =-0.1000 0.1000 0.1000 (   198 PWs)   bands (ev):

    -2.8487  13.8842  14.2533  14.2534  18.4164

          k =-0.1000-0.1000 0.3000 (   199 PWs)   bands (ev):

    -2.0663  10.8504  11.4435  13.9394  16.5089

          k =-0.1000-0.2000 0.4000 (   195 PWs)   bands (ev):

    -1.0950   7.9598  10.1940  13.1460  16.5146

          k =-0.1000-0.3000 0.5000 (   200 PWs)   bands (ev):

     0.1904   5.3428   9.4981  12.5514  16.5838

          k =-0.1000 0.6000-0.4000 (   197 PWs)   bands (ev):

     1.1330   3.9441   9.2658  12.3402  16.5239

          k =-0.2000 0.2000 0.1000 (   197 PWs)   bands (ev):

    -2.2647  11.0847  12.6851  13.0230  17.8864

          k =-0.2000-0.2000 0.5000 (   199 PWs)   bands (ev):

     0.0639   6.2322   8.3215  12.6541  16.7643

          k =-0.2000 0.7000-0.4000 (   200 PWs)   bands (ev):

     1.4564   4.2687   7.5934  12.3538  17.3008

          k =-0.3000 0.3000 0.1000 (   194 PWs)   bands (ev):

    -1.2995   7.9190  11.6657  11.9426  17.1508

          k =-0.3000 0.2000 0.2000 (   194 PWs)   bands (ev):

    -1.4864   9.2564  10.2976  11.7869  18.7549

          k =-0.3000 0.7000-0.3000 (   203 PWs)   bands (ev):

     2.9292   2.9292   6.8484  12.2908  18.6181

          k =-0.4000 0.4000 0.1000 (   193 PWs)   bands (ev):

    -0.0306   5.2643  11.0258  11.2520  16.5584

          k =-0.4000 0.3000 0.2000 (   193 PWs)   bands (ev):

    -0.3362   6.5648   9.1479  11.0675  18.8634

          k = 0.5000-0.5000 0.1000 (   192 PWs)   bands (ev):

     0.8771   3.8877  10.8087  11.0169  16.3447

          k = 0.5000-0.6000 0.2000 (   197 PWs)   bands (ev):

     0.9978   4.3411   8.6528  10.6979  18.7142

          k = 0.5000-0.7000 0.3000 (   196 PWs)   bands (ev):

     0.9894   4.9846   7.4004  10.6397  20.2868

          k = 0.4000-0.6000 0.3000 (   201 PWs)   bands (ev):

     2.1659   3.6066   6.9217  10.4941  20.3904

          k = 0.0000 0.0000 0.3000 (   201 PWs)   bands (ev):

    -2.2586  12.0394  12.0394  14.1357  14.9614

          k = 0.0000-0.1000 0.4000 (   198 PWs)   bands (ev):

    -1.4707   9.5538  10.6471  13.5415  14.4559

          k = 0.0000-0.2000 0.5000 (   195 PWs)   bands (ev):

    -0.3135   6.7200   9.6742  12.8977  15.2784

          k = 0.0000-0.3000 0.6000 (   201 PWs)   bands (ev):

     1.0060   4.5044   9.1798  12.5525  16.3409

          k =-0.1000-0.1000 0.5000 (   199 PWs)   bands (ev):

    -0.4827   7.8980   8.9489  13.5937  13.6446

          k =-0.1000-0.2000 0.6000 (   200 PWs)   bands (ev):

     0.8466   5.5855   8.0813  13.0983  14.6439

          k =-0.1000 0.7000-0.3000 (   202 PWs)   bands (ev):

     1.8980   4.1366   7.8284  12.9179  15.5799

          k =-0.2000 0.8000-0.3000 (   202 PWs)   bands (ev):

     2.3110   4.1873   6.9438  13.7257  14.8357

          k =-0.3000 0.3000 0.3000 (   192 PWs)   bands (ev):

    -0.5160   8.0384   8.0384  10.3298  20.4303

          k = 0.6000-0.6000 0.3000 (   192 PWs)   bands (ev):

     0.8115   5.4767   7.2931   9.8065  21.2533

          k = 0.5000-0.5000 0.3000 (   198 PWs)   bands (ev):

     1.9105   3.9386   7.0429   9.6483  21.4460

          k = 0.5000-0.6000 0.4000 (   197 PWs)   bands (ev):

     2.3013   4.2261   5.8428   9.4252  22.6642

          k = 0.0000 0.0000 0.5000 (   201 PWs)   bands (ev):

    -0.6631   9.2315   9.2315  11.8182  13.4437

          k = 0.0000-0.1000 0.6000 (   200 PWs)   bands (ev):

     0.5313   7.1531   8.2485  11.5848  13.4935

          k = 0.0000-0.2000 0.7000 (   204 PWs)   bands (ev):

     1.9549   4.9608   7.7502  11.8018  14.4319

          k =-0.1000-0.1000 0.7000 (   203 PWs)   bands (ev):

     1.9131   5.8765   7.1444  11.6176  13.4132

          k =-0.1000 0.8000-0.2000 (   208 PWs)   bands (ev):

     3.1595   4.4845   6.7872  12.1051  13.8336

          k = 0.5000-0.5000 0.5000 (   216 PWs)   bands (ev):

     3.9717   3.9717   3.9717   9.1169  24.8014

          k = 0.0000 0.0000 0.7000 (   204 PWs)   bands (ev):

     1.7779   7.2606   7.2606   9.7221  12.9752

          k = 0.0000-0.1000 0.8000 (   206 PWs)   bands (ev):

     3.3270   5.7077   6.7605  10.0516  12.2571

          k =-0.1000 0.9000-0.1000 (   206 PWs)   bands (ev):

     4.8572   4.8572   6.2877  10.5921  10.5921

          k = 0.0000 0.0000 0.9000 (   204 PWs)   bands (ev):

     4.9800   6.2600   6.2600   8.6739   9.8733

     the Fermi energy is     0.5650 ev

!    total energy              =      -0.68944078 Ry
     estimated scf accuracy    <          2.7E-10 Ry
     smearing contrib. (-TS)   =      -0.00007548 Ry
     internal energy E=F+TS    =      -0.68936529 Ry

     The total energy is F=E-TS. E is the sum of the following terms:
     one-electron contribution =       0.42617220 Ry
     hartree contribution      =       0.00106726 Ry
     xc contribution           =      -0.54797448 Ry
     ewald contribution        =      -0.56863027 Ry

     convergence has been achieved in   3 iterations

     Forces acting on atoms (cartesian axes, Ry/au):

     atom    1 type  1   force =     0.00000000    0.00000000    0.00000000

     Total force =     0.000000     Total SCF correction =     0.000000


     Computing stress (Cartesian axis) and pressure

          total   stress  (Ry/bohr**3)                   (kbar)     P=       -6.03
  -0.00004097   0.00000000  -0.00000000           -6.03        0.00       -0.00
   0.00000000  -0.00004097  -0.00000000            0.00       -6.03       -0.00
  -0.00000000   0.00000000  -0.00004097           -0.00        0.00       -6.03


     Writing all to output data dir ./QE-outdir/li.save/ :
     XML data file, charge density, pseudopotentials, collected wavefunctions

     init_run     :      0.04s CPU      0.06s WALL (       1 calls)
     electrons    :      0.13s CPU      0.22s WALL (       1 calls)
     forces       :      0.00s CPU      0.00s WALL (       1 calls)
     stress       :      0.02s CPU      0.02s WALL (       1 calls)

     Called by init_run:
     wfcinit      :      0.03s CPU      0.04s WALL (       1 calls)
     potinit      :      0.00s CPU      0.00s WALL (       1 calls)
     hinit0       :      0.01s CPU      0.01s WALL (       1 calls)

     Called by electrons:
     c_bands      :      0.12s CPU      0.20s WALL (       4 calls)
     sum_band     :      0.01s CPU      0.01s WALL (       4 calls)
     v_of_rho     :      0.00s CPU      0.00s WALL (       4 calls)
     mix_rho      :      0.00s CPU      0.00s WALL (       4 calls)

     Called by c_bands:
     init_us_2    :      0.01s CPU      0.01s WALL (     484 calls)
     cegterg      :      0.11s CPU      0.19s WALL (     176 calls)

     Called by *egterg:
     cdiaghg      :      0.07s CPU      0.16s WALL (     606 calls)
     h_psi        :      0.05s CPU      0.06s WALL (     694 calls)
     g_psi        :      0.00s CPU      0.00s WALL (     474 calls)

     Called by h_psi:
     h_psi:calbec :      0.00s CPU      0.00s WALL (     694 calls)
     vloc_psi     :      0.05s CPU      0.05s WALL (     694 calls)
                                        0.00s GPU  (     694 calls)
     add_vuspsi   :      0.00s CPU      0.00s WALL (     694 calls)

     General routines
     calbec       :      0.01s CPU      0.01s WALL (    1442 calls)
     fft          :      0.00s CPU      0.00s WALL (      20 calls)
     ffts         :      0.00s CPU      0.00s WALL (       4 calls)
     fftw         :      0.04s CPU      0.04s WALL (    7266 calls)

     Parallel routines

     PWSCF        :      0.20s CPU      0.31s WALL


   This run was terminated on:  14: 5:35  26Jan2026            

=------------------------------------------------------------------------------=
   JOB DONE.
=------------------------------------------------------------------------------=
