
     Program PWSCF v.7.5 starts on 31Jan2026 at 23:30:53 

     This program is part of the open-source Quantum ESPRESSO suite
     for quantum simulation of materials; please cite
         "P. Giannozzi et al., J. Phys.:Condens. Matter 21 395502 (2009);
         "P. Giannozzi et al., J. Phys.:Condens. Matter 29 465901 (2017);
         "P. Giannozzi et al., J. Chem. Phys. 152 154105 (2020);
          URL http://www.quantum-espresso.org", 
     in publications or presentations arising from this work. More details at
     http://www.quantum-espresso.org/quote

     Parallel version (MPI), running on     1 processors

     MPI processes distributed on     1 nodes
     0 MiB available memory on the printing compute node when the environment starts

     Waiting for input...
     Reading input from standard input
     Message from routine read_cards :
     DEPRECATED: no units specified in ATOMIC_POSITIONS card
     Message from routine read_cards :
     ATOMIC_POSITIONS: units set to alat

     Current dimensions of program PWSCF are:
     Max number of different atomic species (ntypx) = 10
     Max number of k-points (npk) =  40000
     Max angular momentum in pseudopotentials (lmaxx) =  4
     file Li.pbe-mt_fhi.UPF: wavefunction(s)  2p 4f renormalized

     IMPORTANT: XC functional enforced from input :
     Exchange-correlation= PZ
                           (   1   1   0   0   0   0   0)
     Any further DFT definition will be discarded
     Please, verify this is what you really want


     Subspace diagonalization in iterative solution of the eigenvalue problem:
     a serial algorithm will be used


     G-vector sticks info
     --------------------
     sticks:   dense  smooth     PW     G-vecs:    dense   smooth      PW
     Sum         173     173     63                 1481     1481     321

     Using Slab Decomposition



     bravais-lattice index     =            3
     lattice parameter (alat)  =       6.2700  a.u.
     unit-cell volume          =     123.2459 (a.u.)^3
     number of atoms/cell      =            1
     number of atomic types    =            1
     number of electrons       =         1.00
     number of Kohn-Sham states=            5
     kinetic-energy cutoff     =      20.0000  Ry
     charge density cutoff     =      80.0000  Ry
     scf convergence threshold =      1.0E-08
     mixing beta               =       0.7000
     number of iterations used =            8  plain     mixing
     Exchange-correlation= PZ
                           (   1   1   0   0   0   0   0)

     celldm(1)=   6.270000  celldm(2)=   0.000000  celldm(3)=   0.000000
     celldm(4)=   0.000000  celldm(5)=   0.000000  celldm(6)=   0.000000

     crystal axes: (cart. coord. in units of alat)
               a(1) = (   0.500000   0.500000   0.500000 )  
               a(2) = (  -0.500000   0.500000   0.500000 )  
               a(3) = (  -0.500000  -0.500000   0.500000 )  

     reciprocal axes: (cart. coord. in units 2 pi/alat)
               b(1) = (  1.000000  0.000000  1.000000 )  
               b(2) = ( -1.000000  1.000000  0.000000 )  
               b(3) = (  0.000000 -1.000000  1.000000 )  


     PseudoPot. # 1 for Li read from file:
     ./pseudopot/Li.pbe-mt_fhi.UPF
     MD5 check sum: 3419f5616d131090147e867976aae79b
     Pseudo is Norm-conserving + core correction, Zval =  1.0
     Generated using FHI98PP, converted with fhi2upf.x v.5.0.2
     Using radial grid of  433 points,  3 beta functions with: 
                l(1) =   0
                l(2) =   1
                l(3) =   3

     atomic species   valence    mass     pseudopotential
     Li                1.00     6.94000     Li( 1.00)

     48 Sym. Ops., with inversion, found



   Cartesian axes

     site n.     atom                  positions (alat units)
         1        Li     tau(   1) = (   0.0000000   0.0000000   0.0000000  )

     number of k points=    44  Methfessel-Paxton smearing, width (Ry)=  0.0100
                       cart. coord. in units 2pi/alat
        k(    1) = (   0.0000000   0.0000000   0.1000000), wk =   0.0120000
        k(    2) = (   0.0000000  -0.1000000   0.2000000), wk =   0.0480000
        k(    3) = (   0.0000000  -0.2000000   0.3000000), wk =   0.0480000
        k(    4) = (   0.0000000  -0.3000000   0.4000000), wk =   0.0480000
        k(    5) = (   0.0000000  -0.4000000   0.5000000), wk =   0.0480000
        k(    6) = (  -0.1000000   0.1000000   0.1000000), wk =   0.0160000
        k(    7) = (  -0.1000000  -0.1000000   0.3000000), wk =   0.0480000
        k(    8) = (  -0.1000000  -0.2000000   0.4000000), wk =   0.0960000
        k(    9) = (  -0.1000000  -0.3000000   0.5000000), wk =   0.0960000
        k(   10) = (  -0.1000000   0.6000000  -0.4000000), wk =   0.0480000
        k(   11) = (  -0.2000000   0.2000000   0.1000000), wk =   0.0480000
        k(   12) = (  -0.2000000  -0.2000000   0.5000000), wk =   0.0480000
        k(   13) = (  -0.2000000   0.7000000  -0.4000000), wk =   0.0960000
        k(   14) = (  -0.3000000   0.3000000   0.1000000), wk =   0.0480000
        k(   15) = (  -0.3000000   0.2000000   0.2000000), wk =   0.0480000
        k(   16) = (  -0.3000000   0.7000000  -0.3000000), wk =   0.0160000
        k(   17) = (  -0.4000000   0.4000000   0.1000000), wk =   0.0480000
        k(   18) = (  -0.4000000   0.3000000   0.2000000), wk =   0.0960000
        k(   19) = (   0.5000000  -0.5000000   0.1000000), wk =   0.0240000
        k(   20) = (   0.5000000  -0.6000000   0.2000000), wk =   0.0960000
        k(   21) = (   0.5000000  -0.7000000   0.3000000), wk =   0.0480000
        k(   22) = (   0.4000000  -0.6000000   0.3000000), wk =   0.0480000
        k(   23) = (   0.0000000   0.0000000   0.3000000), wk =   0.0120000
        k(   24) = (   0.0000000  -0.1000000   0.4000000), wk =   0.0480000
        k(   25) = (   0.0000000  -0.2000000   0.5000000), wk =   0.0480000
        k(   26) = (   0.0000000  -0.3000000   0.6000000), wk =   0.0480000
        k(   27) = (  -0.1000000  -0.1000000   0.5000000), wk =   0.0480000
        k(   28) = (  -0.1000000  -0.2000000   0.6000000), wk =   0.0960000
        k(   29) = (  -0.1000000   0.7000000  -0.3000000), wk =   0.0480000
        k(   30) = (  -0.2000000   0.8000000  -0.3000000), wk =   0.0480000
        k(   31) = (  -0.3000000   0.3000000   0.3000000), wk =   0.0160000
        k(   32) = (   0.6000000  -0.6000000   0.3000000), wk =   0.0480000
        k(   33) = (   0.5000000  -0.5000000   0.3000000), wk =   0.0240000
        k(   34) = (   0.5000000  -0.6000000   0.4000000), wk =   0.0480000
        k(   35) = (   0.0000000   0.0000000   0.5000000), wk =   0.0120000
        k(   36) = (   0.0000000  -0.1000000   0.6000000), wk =   0.0480000
        k(   37) = (   0.0000000  -0.2000000   0.7000000), wk =   0.0480000
        k(   38) = (  -0.1000000  -0.1000000   0.7000000), wk =   0.0480000
        k(   39) = (  -0.1000000   0.8000000  -0.2000000), wk =   0.0480000
        k(   40) = (   0.5000000  -0.5000000   0.5000000), wk =   0.0040000
        k(   41) = (   0.0000000   0.0000000   0.7000000), wk =   0.0120000
        k(   42) = (   0.0000000  -0.1000000   0.8000000), wk =   0.0480000
        k(   43) = (  -0.1000000   0.9000000  -0.1000000), wk =   0.0160000
        k(   44) = (   0.0000000   0.0000000   0.9000000), wk =   0.0120000

     Dense  grid:     1481 G-vectors     FFT dimensions: (  15,  15,  15)

     Estimated max dynamical RAM per process >       1.87 MB

     Initial potential from superposition of free atoms

     starting charge       0.9960, renormalised to       1.0000
     Starting wfcs are   16 randomized atomic wfcs

     total cpu time spent up to now is        0.1 secs

     Self-consistent Calculation

     iteration #  1     ecut=    20.00 Ry     beta= 0.70
     Davidson diagonalization with overlap
     ethr =  1.00E-02,  avg # of iterations =  4.3

     Threshold (ethr) on eigenvalues was too large:
     Diagonalizing with lowered threshold

     Davidson diagonalization with overlap
     ethr =  2.22E-05,  avg # of iterations =  3.7

     total cpu time spent up to now is        0.2 secs

     total energy              =      -0.68952197 Ry
     estimated scf accuracy    <       0.00022227 Ry

     iteration #  2     ecut=    20.00 Ry     beta= 0.70
     Davidson diagonalization with overlap
     ethr =  2.22E-05,  avg # of iterations =  1.0

     total cpu time spent up to now is        0.2 secs

     total energy              =      -0.68951906 Ry
     estimated scf accuracy    <       0.00001919 Ry

     iteration #  3     ecut=    20.00 Ry     beta= 0.70
     Davidson diagonalization with overlap
     ethr =  1.92E-06,  avg # of iterations =  1.5

     total cpu time spent up to now is        0.3 secs

     End of self-consistent calculation

          k = 0.0000 0.0000 0.1000 (   185 PWs)   bands (ev):

    -2.9524  15.7042  15.7042  16.0166  20.0499

          k = 0.0000-0.1000 0.2000 (   188 PWs)   bands (ev):

    -2.5537  13.3360  14.2725  15.4394  18.2667

          k = 0.0000-0.2000 0.3000 (   186 PWs)   bands (ev):

    -1.7583   9.9947  12.8754  14.5592  17.4553

          k = 0.0000-0.3000 0.4000 (   186 PWs)   bands (ev):

    -0.5976   6.9465  11.8848  13.7893  16.3875

          k = 0.0000-0.4000 0.5000 (   183 PWs)   bands (ev):

     0.6821   4.6942  11.3793  13.3681  15.8507

          k =-0.1000 0.1000 0.1000 (   189 PWs)   bands (ev):

    -2.7536  14.6573  15.0177  15.0177  19.3195

          k =-0.1000-0.1000 0.3000 (   186 PWs)   bands (ev):

    -1.9533  11.4457  12.1061  14.7000  17.3240

          k =-0.1000-0.2000 0.4000 (   182 PWs)   bands (ev):

    -0.9594   8.4451  10.7999  13.8615  17.3415

          k =-0.1000-0.3000 0.5000 (   183 PWs)   bands (ev):

     0.3531   5.7408  10.0736  13.2362  17.4324

          k =-0.1000 0.6000-0.4000 (   188 PWs)   bands (ev):

     1.3032   4.3135   9.8310  13.0137  17.3737

          k =-0.2000 0.2000 0.1000 (   187 PWs)   bands (ev):

    -2.1566  11.7072  13.4016  13.7167  18.7777

          k =-0.2000-0.2000 0.5000 (   181 PWs)   bands (ev):

     0.2286   6.6210   8.8905  13.3461  17.5928

          k =-0.2000 0.7000-0.4000 (   187 PWs)   bands (ev):

     1.6525   4.5927   8.1400  13.0317  18.1656

          k =-0.3000 0.3000 0.1000 (   185 PWs)   bands (ev):

    -1.1700   8.4139  12.3418  12.5827  18.0043

          k =-0.3000 0.2000 0.2000 (   182 PWs)   bands (ev):

    -1.3606   9.7762  10.9077  12.4647  19.7067

          k =-0.3000 0.7000-0.3000 (   191 PWs)   bands (ev):

     3.1759   3.1759   7.3967  12.9687  19.5240

          k =-0.4000 0.4000 0.1000 (   183 PWs)   bands (ev):

     0.1237   5.6702  11.6755  11.8593  17.3826

          k =-0.4000 0.3000 0.2000 (   185 PWs)   bands (ev):

    -0.1834   6.9866   9.7020  11.7264  19.8173

          k = 0.5000-0.5000 0.1000 (   188 PWs)   bands (ev):

     1.0363   4.2666  11.4487  11.6132  17.1586

          k = 0.5000-0.6000 0.2000 (   185 PWs)   bands (ev):

     1.1751   4.6986   9.1827  11.3472  19.6575

          k = 0.5000-0.7000 0.3000 (   181 PWs)   bands (ev):

     1.1769   5.3190   7.9158  11.2972  21.2782

          k = 0.4000-0.6000 0.3000 (   185 PWs)   bands (ev):

     2.3801   3.8965   7.4236  11.1513  21.4162

          k = 0.0000 0.0000 0.3000 (   181 PWs)   bands (ev):

    -2.1496  12.7022  12.7022  14.9446  15.6886

          k = 0.0000-0.1000 0.4000 (   185 PWs)   bands (ev):

    -1.3427  10.1067  11.2454  14.3008  15.2017

          k = 0.0000-0.2000 0.5000 (   186 PWs)   bands (ev):

    -0.1580   7.1649  10.2287  13.6333  16.0623

          k = 0.0000-0.3000 0.6000 (   186 PWs)   bands (ev):

     1.1843   4.8849   9.7130  13.2772  17.1784

          k =-0.1000-0.1000 0.5000 (   186 PWs)   bands (ev):

    -0.3290   8.3622   9.5015  14.3320  14.3831

          k =-0.1000-0.2000 0.6000 (   184 PWs)   bands (ev):

     1.0337   5.9675   8.6033  13.8351  15.4011

          k =-0.1000 0.7000-0.3000 (   193 PWs)   bands (ev):

     2.1009   4.4852   8.3390  13.6495  16.3784

          k =-0.2000 0.8000-0.3000 (   191 PWs)   bands (ev):

     2.5403   4.4882   7.4656  14.4995  15.5771

          k =-0.3000 0.3000 0.3000 (   186 PWs)   bands (ev):

    -0.3665   8.5036   8.5036  11.0245  21.4574

          k = 0.6000-0.6000 0.3000 (   184 PWs)   bands (ev):

     0.9945   5.8447   7.7256  10.5007  22.6198

          k = 0.5000-0.5000 0.3000 (   186 PWs)   bands (ev):

     2.1137   4.2653   7.4646  10.3423  22.5117

          k = 0.5000-0.6000 0.4000 (   184 PWs)   bands (ev):

     2.5289   4.5276   6.2302  10.1310  23.8030

          k = 0.0000 0.0000 0.5000 (   184 PWs)   bands (ev):

    -0.5124   9.7661   9.7661  12.4137  14.2684

          k = 0.0000-0.1000 0.6000 (   188 PWs)   bands (ev):

     0.7154   7.5997   8.7392  12.1935  14.3150

          k = 0.0000-0.2000 0.7000 (   195 PWs)   bands (ev):

     2.1732   5.3350   8.2191  12.4737  15.2362

          k =-0.1000-0.1000 0.7000 (   193 PWs)   bands (ev):

     2.1390   6.2531   7.6174  12.2181  14.2254

          k =-0.1000 0.8000-0.2000 (   194 PWs)   bands (ev):

     3.4171   4.8163   7.2535  12.7520  14.5319

          k = 0.5000-0.5000 0.5000 (   180 PWs)   bands (ev):

     4.2628   4.2628   4.2628   9.8443  26.0439

          k = 0.0000 0.0000 0.7000 (   196 PWs)   bands (ev):

     2.0041   7.7081   7.7081  10.2297  13.7862

          k = 0.0000-0.1000 0.8000 (   192 PWs)   bands (ev):

     3.6029   6.0924   7.1869  10.5899  12.9211

          k =-0.1000 0.9000-0.1000 (   188 PWs)   bands (ev):

     5.1901   5.1901   6.7165  11.1491  11.1491

          k = 0.0000 0.0000 0.9000 (   188 PWs)   bands (ev):

     5.3253   6.6641   6.6641   9.1376  10.4022

     the Fermi energy is     0.7363 ev

!    total energy              =      -0.68951911 Ry
     estimated scf accuracy    <          2.4E-10 Ry
     smearing contrib. (-TS)   =      -0.00007806 Ry
     internal energy E=F+TS    =      -0.68944105 Ry

     The total energy is F=E-TS. E is the sum of the following terms:
     one-electron contribution =       0.44603915 Ry
     hartree contribution      =       0.00117662 Ry
     xc contribution           =      -0.55623678 Ry
     ewald contribution        =      -0.58042004 Ry

     convergence has been achieved in   3 iterations

     Forces acting on atoms (cartesian axes, Ry/au):

     atom    1 type  1   force =     0.00000000    0.00000000    0.00000000

     Total force =     0.000000     Total SCF correction =     0.000000


     Computing stress (Cartesian axis) and pressure

          total   stress  (Ry/bohr**3)                   (kbar)     P=        2.97
   0.00002017  -0.00000000   0.00000000            2.97       -0.00        0.00
  -0.00000000   0.00002017  -0.00000000           -0.00        2.97       -0.00
   0.00000000  -0.00000000   0.00002017            0.00       -0.00        2.97


     Writing all to output data dir ./QE-outdir/li.save/ :
     XML data file, charge density, pseudopotentials, collected wavefunctions

     init_run     :      0.04s CPU      0.06s WALL (       1 calls)
     electrons    :      0.12s CPU      0.21s WALL (       1 calls)
     forces       :      0.00s CPU      0.00s WALL (       1 calls)
     stress       :      0.02s CPU      0.02s WALL (       1 calls)

     Called by init_run:
     wfcinit      :      0.03s CPU      0.04s WALL (       1 calls)
     potinit      :      0.00s CPU      0.00s WALL (       1 calls)
     hinit0       :      0.01s CPU      0.01s WALL (       1 calls)

     Called by electrons:
     c_bands      :      0.11s CPU      0.20s WALL (       4 calls)
     sum_band     :      0.01s CPU      0.01s WALL (       4 calls)
     v_of_rho     :      0.00s CPU      0.00s WALL (       4 calls)
     mix_rho      :      0.00s CPU      0.00s WALL (       4 calls)

     Called by c_bands:
     init_us_2    :      0.01s CPU      0.01s WALL (     484 calls)
     cegterg      :      0.11s CPU      0.19s WALL (     176 calls)

     Called by *egterg:
     cdiaghg      :      0.07s CPU      0.16s WALL (     591 calls)
     h_psi        :      0.05s CPU      0.05s WALL (     679 calls)
     g_psi        :      0.00s CPU      0.00s WALL (     459 calls)

     Called by h_psi:
     h_psi:calbec :      0.00s CPU      0.00s WALL (     679 calls)
     vloc_psi     :      0.05s CPU      0.05s WALL (     679 calls)
                                        0.00s GPU  (     679 calls)
     add_vuspsi   :      0.00s CPU      0.00s WALL (     679 calls)

     General routines
     calbec       :      0.01s CPU      0.01s WALL (    1427 calls)
     fft          :      0.00s CPU      0.00s WALL (      20 calls)
     ffts         :      0.00s CPU      0.00s WALL (       4 calls)
     fftw         :      0.04s CPU      0.04s WALL (    7210 calls)

     Parallel routines

     PWSCF        :      0.20s CPU      0.30s WALL


   This run was terminated on:  23:30:54  31Jan2026            

=------------------------------------------------------------------------------=
   JOB DONE.
=------------------------------------------------------------------------------=
