
     Program PWSCF v.7.5 starts on 26Jan2026 at 14: 5:38 

     This program is part of the open-source Quantum ESPRESSO suite
     for quantum simulation of materials; please cite
         "P. Giannozzi et al., J. Phys.:Condens. Matter 21 395502 (2009);
         "P. Giannozzi et al., J. Phys.:Condens. Matter 29 465901 (2017);
         "P. Giannozzi et al., J. Chem. Phys. 152 154105 (2020);
          URL http://www.quantum-espresso.org", 
     in publications or presentations arising from this work. More details at
     http://www.quantum-espresso.org/quote

     Parallel version (MPI), running on     1 processors

     MPI processes distributed on     1 nodes
     0 MiB available memory on the printing compute node when the environment starts

     Waiting for input...
     Reading input from standard input
     Message from routine read_cards :
     DEPRECATED: no units specified in ATOMIC_POSITIONS card
     Message from routine read_cards :
     ATOMIC_POSITIONS: units set to alat

     Current dimensions of program PWSCF are:
     Max number of different atomic species (ntypx) = 10
     Max number of k-points (npk) =  40000
     Max angular momentum in pseudopotentials (lmaxx) =  4
     file Li.pbe-mt_fhi.UPF: wavefunction(s)  2p 4f renormalized

     IMPORTANT: XC functional enforced from input :
     Exchange-correlation= PZ
                           (   1   1   0   0   0   0   0)
     Any further DFT definition will be discarded
     Please, verify this is what you really want


     Subspace diagonalization in iterative solution of the eigenvalue problem:
     a serial algorithm will be used


     G-vector sticks info
     --------------------
     sticks:   dense  smooth     PW     G-vecs:    dense   smooth      PW
     Sum         205     205     69                 1865     1865     381

     Using Slab Decomposition



     bravais-lattice index     =            3
     lattice parameter (alat)  =       6.7000  a.u.
     unit-cell volume          =     150.3815 (a.u.)^3
     number of atoms/cell      =            1
     number of atomic types    =            1
     number of electrons       =         1.00
     number of Kohn-Sham states=            5
     kinetic-energy cutoff     =      20.0000  Ry
     charge density cutoff     =      80.0000  Ry
     scf convergence threshold =      1.0E-08
     mixing beta               =       0.7000
     number of iterations used =            8  plain     mixing
     Exchange-correlation= PZ
                           (   1   1   0   0   0   0   0)

     celldm(1)=   6.700000  celldm(2)=   0.000000  celldm(3)=   0.000000
     celldm(4)=   0.000000  celldm(5)=   0.000000  celldm(6)=   0.000000

     crystal axes: (cart. coord. in units of alat)
               a(1) = (   0.500000   0.500000   0.500000 )  
               a(2) = (  -0.500000   0.500000   0.500000 )  
               a(3) = (  -0.500000  -0.500000   0.500000 )  

     reciprocal axes: (cart. coord. in units 2 pi/alat)
               b(1) = (  1.000000  0.000000  1.000000 )  
               b(2) = ( -1.000000  1.000000  0.000000 )  
               b(3) = (  0.000000 -1.000000  1.000000 )  


     PseudoPot. # 1 for Li read from file:
     ./pseudopot/Li.pbe-mt_fhi.UPF
     MD5 check sum: 3419f5616d131090147e867976aae79b
     Pseudo is Norm-conserving + core correction, Zval =  1.0
     Generated using FHI98PP, converted with fhi2upf.x v.5.0.2
     Using radial grid of  433 points,  3 beta functions with: 
                l(1) =   0
                l(2) =   1
                l(3) =   3

     atomic species   valence    mass     pseudopotential
     Li                1.00     6.94000     Li( 1.00)

     48 Sym. Ops., with inversion, found



   Cartesian axes

     site n.     atom                  positions (alat units)
         1        Li     tau(   1) = (   0.0000000   0.0000000   0.0000000  )

     number of k points=    44  Methfessel-Paxton smearing, width (Ry)=  0.0100
                       cart. coord. in units 2pi/alat
        k(    1) = (   0.0000000   0.0000000   0.1000000), wk =   0.0120000
        k(    2) = (   0.0000000  -0.1000000   0.2000000), wk =   0.0480000
        k(    3) = (   0.0000000  -0.2000000   0.3000000), wk =   0.0480000
        k(    4) = (   0.0000000  -0.3000000   0.4000000), wk =   0.0480000
        k(    5) = (   0.0000000  -0.4000000   0.5000000), wk =   0.0480000
        k(    6) = (  -0.1000000   0.1000000   0.1000000), wk =   0.0160000
        k(    7) = (  -0.1000000  -0.1000000   0.3000000), wk =   0.0480000
        k(    8) = (  -0.1000000  -0.2000000   0.4000000), wk =   0.0960000
        k(    9) = (  -0.1000000  -0.3000000   0.5000000), wk =   0.0960000
        k(   10) = (  -0.1000000   0.6000000  -0.4000000), wk =   0.0480000
        k(   11) = (  -0.2000000   0.2000000   0.1000000), wk =   0.0480000
        k(   12) = (  -0.2000000  -0.2000000   0.5000000), wk =   0.0480000
        k(   13) = (  -0.2000000   0.7000000  -0.4000000), wk =   0.0960000
        k(   14) = (  -0.3000000   0.3000000   0.1000000), wk =   0.0480000
        k(   15) = (  -0.3000000   0.2000000   0.2000000), wk =   0.0480000
        k(   16) = (  -0.3000000   0.7000000  -0.3000000), wk =   0.0160000
        k(   17) = (  -0.4000000   0.4000000   0.1000000), wk =   0.0480000
        k(   18) = (  -0.4000000   0.3000000   0.2000000), wk =   0.0960000
        k(   19) = (   0.5000000  -0.5000000   0.1000000), wk =   0.0240000
        k(   20) = (   0.5000000  -0.6000000   0.2000000), wk =   0.0960000
        k(   21) = (   0.5000000  -0.7000000   0.3000000), wk =   0.0480000
        k(   22) = (   0.4000000  -0.6000000   0.3000000), wk =   0.0480000
        k(   23) = (   0.0000000   0.0000000   0.3000000), wk =   0.0120000
        k(   24) = (   0.0000000  -0.1000000   0.4000000), wk =   0.0480000
        k(   25) = (   0.0000000  -0.2000000   0.5000000), wk =   0.0480000
        k(   26) = (   0.0000000  -0.3000000   0.6000000), wk =   0.0480000
        k(   27) = (  -0.1000000  -0.1000000   0.5000000), wk =   0.0480000
        k(   28) = (  -0.1000000  -0.2000000   0.6000000), wk =   0.0960000
        k(   29) = (  -0.1000000   0.7000000  -0.3000000), wk =   0.0480000
        k(   30) = (  -0.2000000   0.8000000  -0.3000000), wk =   0.0480000
        k(   31) = (  -0.3000000   0.3000000   0.3000000), wk =   0.0160000
        k(   32) = (   0.6000000  -0.6000000   0.3000000), wk =   0.0480000
        k(   33) = (   0.5000000  -0.5000000   0.3000000), wk =   0.0240000
        k(   34) = (   0.5000000  -0.6000000   0.4000000), wk =   0.0480000
        k(   35) = (   0.0000000   0.0000000   0.5000000), wk =   0.0120000
        k(   36) = (   0.0000000  -0.1000000   0.6000000), wk =   0.0480000
        k(   37) = (   0.0000000  -0.2000000   0.7000000), wk =   0.0480000
        k(   38) = (  -0.1000000  -0.1000000   0.7000000), wk =   0.0480000
        k(   39) = (  -0.1000000   0.8000000  -0.2000000), wk =   0.0480000
        k(   40) = (   0.5000000  -0.5000000   0.5000000), wk =   0.0040000
        k(   41) = (   0.0000000   0.0000000   0.7000000), wk =   0.0120000
        k(   42) = (   0.0000000  -0.1000000   0.8000000), wk =   0.0480000
        k(   43) = (  -0.1000000   0.9000000  -0.1000000), wk =   0.0160000
        k(   44) = (   0.0000000   0.0000000   0.9000000), wk =   0.0120000

     Dense  grid:     1865 G-vectors     FFT dimensions: (  18,  18,  18)

     Estimated max dynamical RAM per process >       2.36 MB

     Initial potential from superposition of free atoms

     starting charge       0.9960, renormalised to       1.0000
     Starting wfcs are   16 randomized atomic wfcs

     total cpu time spent up to now is        0.1 secs

     Self-consistent Calculation

     iteration #  1     ecut=    20.00 Ry     beta= 0.70
     Davidson diagonalization with overlap
     ethr =  1.00E-02,  avg # of iterations =  4.6

     Threshold (ethr) on eigenvalues was too large:
     Diagonalizing with lowered threshold

     Davidson diagonalization with overlap
     ethr =  1.51E-05,  avg # of iterations =  4.5

     total cpu time spent up to now is        0.3 secs

     total energy              =      -0.68764471 Ry
     estimated scf accuracy    <       0.00015074 Ry

     iteration #  2     ecut=    20.00 Ry     beta= 0.70
     Davidson diagonalization with overlap
     ethr =  1.51E-05,  avg # of iterations =  1.0

     total cpu time spent up to now is        0.4 secs

     total energy              =      -0.68764320 Ry
     estimated scf accuracy    <       0.00001330 Ry

     iteration #  3     ecut=    20.00 Ry     beta= 0.70
     Davidson diagonalization with overlap
     ethr =  1.33E-06,  avg # of iterations =  1.0

     total cpu time spent up to now is        0.4 secs

     End of self-consistent calculation

          k = 0.0000 0.0000 0.1000 (   225 PWs)   bands (ev):

    -3.2078  13.2100  13.2101  13.4557  17.2661

          k = 0.0000-0.1000 0.2000 (   221 PWs)   bands (ev):

    -2.8379  11.1890  11.9989  12.9790  15.6365

          k = 0.0000-0.2000 0.3000 (   228 PWs)   bands (ev):

    -2.1009   8.2748  10.7949  12.2484  14.9467

          k = 0.0000-0.3000 0.4000 (   229 PWs)   bands (ev):

    -1.0220   5.5680   9.9364  11.5983  14.0127

          k = 0.0000-0.4000 0.5000 (   228 PWs)   bands (ev):

     0.1998   3.5059   9.4970  11.2393  13.5430

          k =-0.1000 0.1000 0.1000 (   222 PWs)   bands (ev):

    -3.0231  12.2766  12.6603  12.6604  16.5376

          k =-0.1000-0.1000 0.3000 (   220 PWs)   bands (ev):

    -2.2824   9.6117  10.0655  12.3555  14.8120

          k =-0.1000-0.2000 0.4000 (   229 PWs)   bands (ev):

    -1.3638   6.9506   8.9371  11.6556  14.7925

          k =-0.1000-0.3000 0.5000 (   225 PWs)   bands (ev):

    -0.1412   4.5207   8.3059  11.1259  14.8163

          k =-0.1000 0.6000-0.4000 (   227 PWs)   bands (ev):

     0.7825   3.1834   8.0945  10.9362  14.7533

          k =-0.2000 0.2000 0.1000 (   222 PWs)   bands (ev):

    -2.4695   9.7884  11.1975  11.5758  16.0304

          k =-0.2000-0.2000 0.5000 (   229 PWs)   bands (ev):

    -0.2704   5.4249   7.1458  11.2151  15.0394

          k =-0.2000 0.7000-0.4000 (   225 PWs)   bands (ev):

     1.0520   3.5962   6.4687  10.9429  15.4973

          k =-0.3000 0.3000 0.1000 (   229 PWs)   bands (ev):

    -1.5550   6.8908  10.2627  10.6082  15.3720

          k =-0.3000 0.2000 0.2000 (   222 PWs)   bands (ev):

    -1.7330   8.1745   9.0237  10.3870  16.7731

          k =-0.3000 0.7000-0.3000 (   225 PWs)   bands (ev):

     2.4188   2.4188   5.7192  10.8810  16.7309

          k =-0.4000 0.4000 0.1000 (   232 PWs)   bands (ev):

    -0.3448   4.4281   9.6771   9.9857  14.8406

          k =-0.4000 0.3000 0.2000 (   230 PWs)   bands (ev):

    -0.6448   5.6880   7.9920   9.7078  16.8755

          k = 0.5000-0.5000 0.1000 (   226 PWs)   bands (ev):

     0.5495   3.1100   9.4787   9.7735  14.6483

          k = 0.5000-0.6000 0.2000 (   227 PWs)   bands (ev):

     0.6326   3.6028   7.5484   9.3598  16.7456

          k = 0.5000-0.7000 0.3000 (   227 PWs)   bands (ev):

     0.6044   4.2911   6.3280   9.2878  18.0889

          k = 0.4000-0.6000 0.3000 (   226 PWs)   bands (ev):

     1.7240   3.0049   5.8788   9.1450  18.2473

          k = 0.0000 0.0000 0.3000 (   217 PWs)   bands (ev):

    -2.4650  10.6625  10.6625  12.4561  13.4466

          k = 0.0000-0.1000 0.4000 (   223 PWs)   bands (ev):

    -1.7213   8.4032   9.4033  11.9509  12.9168

          k = 0.0000-0.2000 0.5000 (   228 PWs)   bands (ev):

    -0.6276   5.7975   8.5201  11.3658  13.6497

          k = 0.0000-0.3000 0.6000 (   224 PWs)   bands (ev):

     0.6390   3.7214   8.0711  11.0474  14.6005

          k =-0.1000-0.1000 0.5000 (   231 PWs)   bands (ev):

    -0.7913   6.9331   7.8001  11.9532  12.2140

          k =-0.1000-0.2000 0.6000 (   227 PWs)   bands (ev):

     0.4631   4.7922   7.0017  11.5613  13.0729

          k =-0.1000 0.7000-0.3000 (   231 PWs)   bands (ev):

     1.4791   3.4142   6.7713  11.3955  13.9196

          k =-0.2000 0.8000-0.3000 (   229 PWs)   bands (ev):

     1.8371   3.5628   5.8668  12.1152  13.2911

          k =-0.3000 0.3000 0.3000 (   234 PWs)   bands (ev):

    -0.8165   7.0700   7.0701   8.8936  18.2891

          k = 0.6000-0.6000 0.3000 (   231 PWs)   bands (ev):

     0.4360   4.7117   6.3932   8.3785  19.0376

          k = 0.5000-0.5000 0.3000 (   228 PWs)   bands (ev):

     1.4915   3.2606   6.1658   8.2240  19.2220

          k = 0.5000-0.6000 0.4000 (   228 PWs)   bands (ev):

     1.8311   3.6009   5.0350   7.9798  20.2901

          k = 0.0000 0.0000 0.5000 (   233 PWs)   bands (ev):

    -0.9640   8.1211   8.1211  10.5787  11.7309

          k = 0.0000-0.1000 0.6000 (   228 PWs)   bands (ev):

     0.1562   6.2244   7.2282  10.3128  11.7948

          k = 0.0000-0.2000 0.7000 (   231 PWs)   bands (ev):

     1.5040   4.1866   6.7750  10.3965  12.7631

          k =-0.1000-0.1000 0.7000 (   227 PWs)   bands (ev):

     1.4475   5.0943   6.1629  10.3682  11.7172

          k =-0.1000 0.8000-0.2000 (   230 PWs)   bands (ev):

     2.6268   3.7956   5.8221  10.7518  12.3800

          k = 0.5000-0.5000 0.5000 (   216 PWs)   bands (ev):

     3.3701   3.3701   3.3701   7.6282  22.2302

          k = 0.0000 0.0000 0.7000 (   233 PWs)   bands (ev):

     1.3130   6.3306   6.3306   8.6663  11.2775

          k = 0.0000-0.1000 0.8000 (   232 PWs)   bands (ev):

     2.7557   4.9089   5.8759   8.9309  10.8589

          k =-0.1000 0.9000-0.1000 (   236 PWs)   bands (ev):

     4.1663   4.1663   5.3987   9.4336   9.4336

          k = 0.0000 0.0000 0.9000 (   236 PWs)   bands (ev):

     4.2645   5.4203   5.4203   7.7099   8.7730

     the Fermi energy is     0.2193 ev

!    total energy              =      -0.68764325 Ry
     estimated scf accuracy    <          5.3E-10 Ry
     smearing contrib. (-TS)   =      -0.00004002 Ry
     internal energy E=F+TS    =      -0.68760323 Ry

     The total energy is F=E-TS. E is the sum of the following terms:
     one-electron contribution =       0.38499419 Ry
     hartree contribution      =       0.00083522 Ry
     xc contribution           =      -0.53026343 Ry
     ewald contribution        =      -0.54316920 Ry

     convergence has been achieved in   3 iterations

     Forces acting on atoms (cartesian axes, Ry/au):

     atom    1 type  1   force =     0.00000000    0.00000000    0.00000000

     Total force =     0.000000     Total SCF correction =     0.000000


     Computing stress (Cartesian axis) and pressure

          total   stress  (Ry/bohr**3)                   (kbar)     P=      -20.29
  -0.00013792  -0.00000000   0.00000000          -20.29       -0.00        0.00
   0.00000000  -0.00013792  -0.00000000            0.00      -20.29       -0.00
  -0.00000000  -0.00000000  -0.00013792           -0.00       -0.00      -20.29


     Writing all to output data dir ./QE-outdir/li.save/ :
     XML data file, charge density, pseudopotentials, collected wavefunctions

     init_run     :      0.06s CPU      0.08s WALL (       1 calls)
     electrons    :      0.22s CPU      0.32s WALL (       1 calls)
     forces       :      0.00s CPU      0.00s WALL (       1 calls)
     stress       :      0.03s CPU      0.03s WALL (       1 calls)

     Called by init_run:
     wfcinit      :      0.05s CPU      0.06s WALL (       1 calls)
     potinit      :      0.00s CPU      0.00s WALL (       1 calls)
     hinit0       :      0.01s CPU      0.01s WALL (       1 calls)

     Called by electrons:
     c_bands      :      0.20s CPU      0.29s WALL (       4 calls)
     sum_band     :      0.03s CPU      0.03s WALL (       4 calls)
     v_of_rho     :      0.00s CPU      0.00s WALL (       4 calls)
     mix_rho      :      0.00s CPU      0.00s WALL (       4 calls)

     Called by c_bands:
     init_us_2    :      0.01s CPU      0.01s WALL (     484 calls)
     cegterg      :      0.19s CPU      0.28s WALL (     176 calls)

     Called by *egterg:
     cdiaghg      :      0.07s CPU      0.18s WALL (     622 calls)
     h_psi        :      0.15s CPU      0.15s WALL (     710 calls)
     g_psi        :      0.00s CPU      0.00s WALL (     490 calls)

     Called by h_psi:
     h_psi:calbec :      0.00s CPU      0.00s WALL (     710 calls)
     vloc_psi     :      0.14s CPU      0.14s WALL (     710 calls)
                                        0.00s GPU  (     710 calls)
     add_vuspsi   :      0.00s CPU      0.00s WALL (     710 calls)

     General routines
     calbec       :      0.01s CPU      0.01s WALL (    1458 calls)
     fft          :      0.00s CPU      0.00s WALL (      20 calls)
     ffts         :      0.00s CPU      0.00s WALL (       4 calls)
     fftw         :      0.15s CPU      0.15s WALL (    7426 calls)

     Parallel routines

     PWSCF        :      0.32s CPU      0.44s WALL


   This run was terminated on:  14: 5:38  26Jan2026            

=------------------------------------------------------------------------------=
   JOB DONE.
=------------------------------------------------------------------------------=
