
     Program PWSCF v.7.5 starts on 31Jan2026 at 23:30:52 

     This program is part of the open-source Quantum ESPRESSO suite
     for quantum simulation of materials; please cite
         "P. Giannozzi et al., J. Phys.:Condens. Matter 21 395502 (2009);
         "P. Giannozzi et al., J. Phys.:Condens. Matter 29 465901 (2017);
         "P. Giannozzi et al., J. Chem. Phys. 152 154105 (2020);
          URL http://www.quantum-espresso.org", 
     in publications or presentations arising from this work. More details at
     http://www.quantum-espresso.org/quote

     Parallel version (MPI), running on     1 processors

     MPI processes distributed on     1 nodes
     0 MiB available memory on the printing compute node when the environment starts

     Waiting for input...
     Reading input from standard input
     Message from routine read_cards :
     DEPRECATED: no units specified in ATOMIC_POSITIONS card
     Message from routine read_cards :
     ATOMIC_POSITIONS: units set to alat

     Current dimensions of program PWSCF are:
     Max number of different atomic species (ntypx) = 10
     Max number of k-points (npk) =  40000
     Max angular momentum in pseudopotentials (lmaxx) =  4
     file Li.pbe-mt_fhi.UPF: wavefunction(s)  2p 4f renormalized

     IMPORTANT: XC functional enforced from input :
     Exchange-correlation= PZ
                           (   1   1   0   0   0   0   0)
     Any further DFT definition will be discarded
     Please, verify this is what you really want


     Subspace diagonalization in iterative solution of the eigenvalue problem:
     a serial algorithm will be used


     G-vector sticks info
     --------------------
     sticks:   dense  smooth     PW     G-vecs:    dense   smooth      PW
     Sum         173     173     63                 1481     1481     321

     Using Slab Decomposition



     bravais-lattice index     =            3
     lattice parameter (alat)  =       6.2200  a.u.
     unit-cell volume          =     120.3209 (a.u.)^3
     number of atoms/cell      =            1
     number of atomic types    =            1
     number of electrons       =         1.00
     number of Kohn-Sham states=            5
     kinetic-energy cutoff     =      20.0000  Ry
     charge density cutoff     =      80.0000  Ry
     scf convergence threshold =      1.0E-08
     mixing beta               =       0.7000
     number of iterations used =            8  plain     mixing
     Exchange-correlation= PZ
                           (   1   1   0   0   0   0   0)

     celldm(1)=   6.220000  celldm(2)=   0.000000  celldm(3)=   0.000000
     celldm(4)=   0.000000  celldm(5)=   0.000000  celldm(6)=   0.000000

     crystal axes: (cart. coord. in units of alat)
               a(1) = (   0.500000   0.500000   0.500000 )  
               a(2) = (  -0.500000   0.500000   0.500000 )  
               a(3) = (  -0.500000  -0.500000   0.500000 )  

     reciprocal axes: (cart. coord. in units 2 pi/alat)
               b(1) = (  1.000000  0.000000  1.000000 )  
               b(2) = ( -1.000000  1.000000  0.000000 )  
               b(3) = (  0.000000 -1.000000  1.000000 )  


     PseudoPot. # 1 for Li read from file:
     ./pseudopot/Li.pbe-mt_fhi.UPF
     MD5 check sum: 3419f5616d131090147e867976aae79b
     Pseudo is Norm-conserving + core correction, Zval =  1.0
     Generated using FHI98PP, converted with fhi2upf.x v.5.0.2
     Using radial grid of  433 points,  3 beta functions with: 
                l(1) =   0
                l(2) =   1
                l(3) =   3

     atomic species   valence    mass     pseudopotential
     Li                1.00     6.94000     Li( 1.00)

     48 Sym. Ops., with inversion, found



   Cartesian axes

     site n.     atom                  positions (alat units)
         1        Li     tau(   1) = (   0.0000000   0.0000000   0.0000000  )

     number of k points=    44  Methfessel-Paxton smearing, width (Ry)=  0.0100
                       cart. coord. in units 2pi/alat
        k(    1) = (   0.0000000   0.0000000   0.1000000), wk =   0.0120000
        k(    2) = (   0.0000000  -0.1000000   0.2000000), wk =   0.0480000
        k(    3) = (   0.0000000  -0.2000000   0.3000000), wk =   0.0480000
        k(    4) = (   0.0000000  -0.3000000   0.4000000), wk =   0.0480000
        k(    5) = (   0.0000000  -0.4000000   0.5000000), wk =   0.0480000
        k(    6) = (  -0.1000000   0.1000000   0.1000000), wk =   0.0160000
        k(    7) = (  -0.1000000  -0.1000000   0.3000000), wk =   0.0480000
        k(    8) = (  -0.1000000  -0.2000000   0.4000000), wk =   0.0960000
        k(    9) = (  -0.1000000  -0.3000000   0.5000000), wk =   0.0960000
        k(   10) = (  -0.1000000   0.6000000  -0.4000000), wk =   0.0480000
        k(   11) = (  -0.2000000   0.2000000   0.1000000), wk =   0.0480000
        k(   12) = (  -0.2000000  -0.2000000   0.5000000), wk =   0.0480000
        k(   13) = (  -0.2000000   0.7000000  -0.4000000), wk =   0.0960000
        k(   14) = (  -0.3000000   0.3000000   0.1000000), wk =   0.0480000
        k(   15) = (  -0.3000000   0.2000000   0.2000000), wk =   0.0480000
        k(   16) = (  -0.3000000   0.7000000  -0.3000000), wk =   0.0160000
        k(   17) = (  -0.4000000   0.4000000   0.1000000), wk =   0.0480000
        k(   18) = (  -0.4000000   0.3000000   0.2000000), wk =   0.0960000
        k(   19) = (   0.5000000  -0.5000000   0.1000000), wk =   0.0240000
        k(   20) = (   0.5000000  -0.6000000   0.2000000), wk =   0.0960000
        k(   21) = (   0.5000000  -0.7000000   0.3000000), wk =   0.0480000
        k(   22) = (   0.4000000  -0.6000000   0.3000000), wk =   0.0480000
        k(   23) = (   0.0000000   0.0000000   0.3000000), wk =   0.0120000
        k(   24) = (   0.0000000  -0.1000000   0.4000000), wk =   0.0480000
        k(   25) = (   0.0000000  -0.2000000   0.5000000), wk =   0.0480000
        k(   26) = (   0.0000000  -0.3000000   0.6000000), wk =   0.0480000
        k(   27) = (  -0.1000000  -0.1000000   0.5000000), wk =   0.0480000
        k(   28) = (  -0.1000000  -0.2000000   0.6000000), wk =   0.0960000
        k(   29) = (  -0.1000000   0.7000000  -0.3000000), wk =   0.0480000
        k(   30) = (  -0.2000000   0.8000000  -0.3000000), wk =   0.0480000
        k(   31) = (  -0.3000000   0.3000000   0.3000000), wk =   0.0160000
        k(   32) = (   0.6000000  -0.6000000   0.3000000), wk =   0.0480000
        k(   33) = (   0.5000000  -0.5000000   0.3000000), wk =   0.0240000
        k(   34) = (   0.5000000  -0.6000000   0.4000000), wk =   0.0480000
        k(   35) = (   0.0000000   0.0000000   0.5000000), wk =   0.0120000
        k(   36) = (   0.0000000  -0.1000000   0.6000000), wk =   0.0480000
        k(   37) = (   0.0000000  -0.2000000   0.7000000), wk =   0.0480000
        k(   38) = (  -0.1000000  -0.1000000   0.7000000), wk =   0.0480000
        k(   39) = (  -0.1000000   0.8000000  -0.2000000), wk =   0.0480000
        k(   40) = (   0.5000000  -0.5000000   0.5000000), wk =   0.0040000
        k(   41) = (   0.0000000   0.0000000   0.7000000), wk =   0.0120000
        k(   42) = (   0.0000000  -0.1000000   0.8000000), wk =   0.0480000
        k(   43) = (  -0.1000000   0.9000000  -0.1000000), wk =   0.0160000
        k(   44) = (   0.0000000   0.0000000   0.9000000), wk =   0.0120000

     Dense  grid:     1481 G-vectors     FFT dimensions: (  15,  15,  15)

     Estimated max dynamical RAM per process >       1.85 MB

     Initial potential from superposition of free atoms

     starting charge       0.9960, renormalised to       1.0000
     Starting wfcs are   16 randomized atomic wfcs

     total cpu time spent up to now is        0.1 secs

     Self-consistent Calculation

     iteration #  1     ecut=    20.00 Ry     beta= 0.70
     Davidson diagonalization with overlap
     ethr =  1.00E-02,  avg # of iterations =  4.3

     Threshold (ethr) on eigenvalues was too large:
     Diagonalizing with lowered threshold

     Davidson diagonalization with overlap
     ethr =  2.34E-05,  avg # of iterations =  3.8

     total cpu time spent up to now is        0.2 secs

     total energy              =      -0.68941989 Ry
     estimated scf accuracy    <       0.00023544 Ry

     iteration #  2     ecut=    20.00 Ry     beta= 0.70
     Davidson diagonalization with overlap
     ethr =  2.35E-05,  avg # of iterations =  1.0

     total cpu time spent up to now is        0.2 secs

     total energy              =      -0.68941680 Ry
     estimated scf accuracy    <       0.00002028 Ry

     iteration #  3     ecut=    20.00 Ry     beta= 0.70
     Davidson diagonalization with overlap
     ethr =  2.03E-06,  avg # of iterations =  1.5

     total cpu time spent up to now is        0.3 secs

     End of self-consistent calculation

          k = 0.0000 0.0000 0.1000 (   181 PWs)   bands (ev):

    -2.9136  16.0298  16.0298  16.3510  20.4126

          k = 0.0000-0.1000 0.2000 (   183 PWs)   bands (ev):

    -2.5117  13.6159  14.5695  15.7602  18.6097

          k = 0.0000-0.2000 0.3000 (   183 PWs)   bands (ev):

    -1.7098  10.2196  13.1468  14.8603  17.7825

          k = 0.0000-0.3000 0.4000 (   180 PWs)   bands (ev):

    -0.5399   7.1278  12.1394  14.0751  16.6973

          k = 0.0000-0.4000 0.5000 (   182 PWs)   bands (ev):

     0.7458   4.8518  11.6246  13.6455  16.1516

          k =-0.1000 0.1000 0.1000 (   183 PWs)   bands (ev):

    -2.7133  14.9679  15.3256  15.3256  19.6832

          k =-0.1000-0.1000 0.3000 (   179 PWs)   bands (ev):

    -1.9062  11.6852  12.3729  15.0061  17.6519

          k =-0.1000-0.2000 0.4000 (   180 PWs)   bands (ev):

    -0.9039   8.6402  11.0438  14.1488  17.6736

          k =-0.1000-0.3000 0.5000 (   183 PWs)   bands (ev):

     0.4189   5.9011  10.3050  13.5110  17.7729

          k =-0.1000 0.6000-0.4000 (   180 PWs)   bands (ev):

     1.3719   4.4629  10.0589  13.2850  17.7151

          k =-0.2000 0.2000 0.1000 (   182 PWs)   bands (ev):

    -2.1114  11.9572  13.6902  13.9956  19.1361

          k =-0.2000-0.2000 0.5000 (   179 PWs)   bands (ev):

     0.2954   6.7774   9.1197  13.6238  17.9257

          k =-0.2000 0.7000-0.4000 (   182 PWs)   bands (ev):

     1.7318   4.7230   8.3607  13.3043  18.5130

          k =-0.3000 0.3000 0.1000 (   179 PWs)   bands (ev):

    -1.1167   8.6134  12.6140  12.8401  18.3477

          k =-0.3000 0.2000 0.2000 (   179 PWs)   bands (ev):

    -1.3087   9.9852  11.1524  12.7381  20.0894

          k =-0.3000 0.7000-0.3000 (   185 PWs)   bands (ev):

     3.2754   3.2754   7.6182  13.2411  19.8880

          k =-0.4000 0.4000 0.1000 (   183 PWs)   bands (ev):

     0.1862   5.8339  11.9367  12.1034  17.7138

          k =-0.4000 0.3000 0.2000 (   180 PWs)   bands (ev):

    -0.1212   7.1563   9.9249  11.9927  20.2003

          k = 0.5000-0.5000 0.1000 (   182 PWs)   bands (ev):

     1.1008   4.4200  11.7069  11.8530  17.4857

          k = 0.5000-0.6000 0.2000 (   178 PWs)   bands (ev):

     1.2468   4.8427   9.3959  11.6095  20.0364

          k = 0.5000-0.7000 0.3000 (   179 PWs)   bands (ev):

     1.2527   5.4534   8.1227  11.5629  21.6761

          k = 0.4000-0.6000 0.3000 (   177 PWs)   bands (ev):

     2.4664   4.0133   7.6254  11.4172  21.8270

          k = 0.0000 0.0000 0.3000 (   177 PWs)   bands (ev):

    -2.1040  12.9681  12.9681  15.2693  15.9809

          k = 0.0000-0.1000 0.4000 (   181 PWs)   bands (ev):

    -1.2899  10.3290  11.4860  14.6045  15.5027

          k = 0.0000-0.2000 0.5000 (   183 PWs)   bands (ev):

    -0.0945   7.3440  10.4519  13.9289  16.3775

          k = 0.0000-0.3000 0.6000 (   179 PWs)   bands (ev):

     1.2563   5.0388   9.9273  13.5687  17.5149

          k =-0.1000-0.1000 0.5000 (   182 PWs)   bands (ev):

    -0.2662   8.5490   9.7238  14.6084  14.7000

          k =-0.1000-0.2000 0.6000 (   182 PWs)   bands (ev):

     1.1094   6.1211   8.8133  14.1306  15.7062

          k =-0.1000 0.7000-0.3000 (   181 PWs)   bands (ev):

     2.1830   4.6257   8.5455  13.9436  16.6999

          k =-0.2000 0.8000-0.3000 (   187 PWs)   bands (ev):

     2.6326   4.6097   7.6761  14.8100  15.8754

          k =-0.3000 0.3000 0.3000 (   183 PWs)   bands (ev):

    -0.3056   8.6908   8.6908  11.3050  21.8706

          k = 0.6000-0.6000 0.3000 (   178 PWs)   bands (ev):

     1.0687   5.9928   7.8998  10.7816  23.0532

          k = 0.5000-0.5000 0.3000 (   176 PWs)   bands (ev):

     2.1958   4.3970   7.6344  10.6233  22.9408

          k = 0.5000-0.6000 0.4000 (   179 PWs)   bands (ev):

     2.6207   4.6490   6.3859  10.4167  24.2606

          k = 0.0000 0.0000 0.5000 (   184 PWs)   bands (ev):

    -0.4509   9.9805   9.9805  12.6531  14.5997

          k = 0.0000-0.1000 0.6000 (   186 PWs)   bands (ev):

     0.7902   7.7793   8.9367  12.4379  14.6451

          k = 0.0000-0.2000 0.7000 (   187 PWs)   bands (ev):

     2.2614   5.4859   8.4081  12.7433  15.5606

          k =-0.1000-0.1000 0.7000 (   187 PWs)   bands (ev):

     2.2302   6.4047   7.8077  12.4596  14.5519

          k =-0.1000 0.8000-0.2000 (   192 PWs)   bands (ev):

     3.5207   4.9496   7.4414  13.0115  14.8125

          k = 0.5000-0.5000 0.5000 (   180 PWs)   bands (ev):

     4.3797   4.3797   4.3797  10.1380  26.5404

          k = 0.0000 0.0000 0.7000 (   184 PWs)   bands (ev):

     2.0956   7.8888   7.8888  10.4338  14.1116

          k = 0.0000-0.1000 0.8000 (   184 PWs)   bands (ev):

     3.7144   6.2474   7.3581  10.8063  13.1874

          k =-0.1000 0.9000-0.1000 (   182 PWs)   bands (ev):

     5.3240   5.3240   6.8895  11.3731  11.3731

          k = 0.0000 0.0000 0.9000 (   180 PWs)   bands (ev):

     5.4642   6.8268   6.8268   9.3241  10.6149

     the Fermi energy is     0.8061 ev

!    total energy              =      -0.68941685 Ry
     estimated scf accuracy    <          2.8E-10 Ry
     smearing contrib. (-TS)   =      -0.00007641 Ry
     internal energy E=F+TS    =      -0.68934045 Ry

     The total energy is F=E-TS. E is the sum of the following terms:
     one-electron contribution =       0.45404270 Ry
     hartree contribution      =       0.00121999 Ry
     xc contribution           =      -0.55951735 Ry
     ewald contribution        =      -0.58508579 Ry

     convergence has been achieved in   3 iterations

     Forces acting on atoms (cartesian axes, Ry/au):

     atom    1 type  1   force =     0.00000000    0.00000000    0.00000000

     Total force =     0.000000     Total SCF correction =     0.000000


     Computing stress (Cartesian axis) and pressure

          total   stress  (Ry/bohr**3)                   (kbar)     P=        7.01
   0.00004765   0.00000000  -0.00000000            7.01        0.00       -0.00
   0.00000000   0.00004765   0.00000000            0.00        7.01        0.00
  -0.00000000   0.00000000   0.00004765           -0.00        0.00        7.01


     Writing all to output data dir ./QE-outdir/li.save/ :
     XML data file, charge density, pseudopotentials, collected wavefunctions

     init_run     :      0.04s CPU      0.06s WALL (       1 calls)
     electrons    :      0.12s CPU      0.21s WALL (       1 calls)
     forces       :      0.00s CPU      0.00s WALL (       1 calls)
     stress       :      0.02s CPU      0.02s WALL (       1 calls)

     Called by init_run:
     wfcinit      :      0.03s CPU      0.04s WALL (       1 calls)
     potinit      :      0.00s CPU      0.00s WALL (       1 calls)
     hinit0       :      0.01s CPU      0.01s WALL (       1 calls)

     Called by electrons:
     c_bands      :      0.11s CPU      0.20s WALL (       4 calls)
     sum_band     :      0.01s CPU      0.01s WALL (       4 calls)
     v_of_rho     :      0.00s CPU      0.00s WALL (       4 calls)
     mix_rho      :      0.00s CPU      0.00s WALL (       4 calls)

     Called by c_bands:
     init_us_2    :      0.01s CPU      0.01s WALL (     484 calls)
     cegterg      :      0.11s CPU      0.19s WALL (     176 calls)

     Called by *egterg:
     cdiaghg      :      0.07s CPU      0.16s WALL (     599 calls)
     h_psi        :      0.05s CPU      0.05s WALL (     687 calls)
     g_psi        :      0.00s CPU      0.00s WALL (     467 calls)

     Called by h_psi:
     h_psi:calbec :      0.00s CPU      0.00s WALL (     687 calls)
     vloc_psi     :      0.05s CPU      0.05s WALL (     687 calls)
                                        0.00s GPU  (     687 calls)
     add_vuspsi   :      0.00s CPU      0.00s WALL (     687 calls)

     General routines
     calbec       :      0.01s CPU      0.01s WALL (    1435 calls)
     fft          :      0.00s CPU      0.00s WALL (      20 calls)
     ffts         :      0.00s CPU      0.00s WALL (       4 calls)
     fftw         :      0.04s CPU      0.04s WALL (    7204 calls)

     Parallel routines

     PWSCF        :      0.19s CPU      0.30s WALL


   This run was terminated on:  23:30:52  31Jan2026            

=------------------------------------------------------------------------------=
   JOB DONE.
=------------------------------------------------------------------------------=
