
     Program PWSCF v.7.5 starts on 31Jan2026 at 23:30:55 

     This program is part of the open-source Quantum ESPRESSO suite
     for quantum simulation of materials; please cite
         "P. Giannozzi et al., J. Phys.:Condens. Matter 21 395502 (2009);
         "P. Giannozzi et al., J. Phys.:Condens. Matter 29 465901 (2017);
         "P. Giannozzi et al., J. Chem. Phys. 152 154105 (2020);
          URL http://www.quantum-espresso.org", 
     in publications or presentations arising from this work. More details at
     http://www.quantum-espresso.org/quote

     Parallel version (MPI), running on     1 processors

     MPI processes distributed on     1 nodes
     0 MiB available memory on the printing compute node when the environment starts

     Waiting for input...
     Reading input from standard input
     Message from routine read_cards :
     DEPRECATED: no units specified in ATOMIC_POSITIONS card
     Message from routine read_cards :
     ATOMIC_POSITIONS: units set to alat

     Current dimensions of program PWSCF are:
     Max number of different atomic species (ntypx) = 10
     Max number of k-points (npk) =  40000
     Max angular momentum in pseudopotentials (lmaxx) =  4
     file Li.pbe-mt_fhi.UPF: wavefunction(s)  2p 4f renormalized

     IMPORTANT: XC functional enforced from input :
     Exchange-correlation= PZ
                           (   1   1   0   0   0   0   0)
     Any further DFT definition will be discarded
     Please, verify this is what you really want


     Subspace diagonalization in iterative solution of the eigenvalue problem:
     a serial algorithm will be used


     G-vector sticks info
     --------------------
     sticks:   dense  smooth     PW     G-vecs:    dense   smooth      PW
     Sum         173     173     63                 1505     1505     321

     Using Slab Decomposition



     bravais-lattice index     =            3
     lattice parameter (alat)  =       6.3200  a.u.
     unit-cell volume          =     126.2180 (a.u.)^3
     number of atoms/cell      =            1
     number of atomic types    =            1
     number of electrons       =         1.00
     number of Kohn-Sham states=            5
     kinetic-energy cutoff     =      20.0000  Ry
     charge density cutoff     =      80.0000  Ry
     scf convergence threshold =      1.0E-08
     mixing beta               =       0.7000
     number of iterations used =            8  plain     mixing
     Exchange-correlation= PZ
                           (   1   1   0   0   0   0   0)

     celldm(1)=   6.320000  celldm(2)=   0.000000  celldm(3)=   0.000000
     celldm(4)=   0.000000  celldm(5)=   0.000000  celldm(6)=   0.000000

     crystal axes: (cart. coord. in units of alat)
               a(1) = (   0.500000   0.500000   0.500000 )  
               a(2) = (  -0.500000   0.500000   0.500000 )  
               a(3) = (  -0.500000  -0.500000   0.500000 )  

     reciprocal axes: (cart. coord. in units 2 pi/alat)
               b(1) = (  1.000000  0.000000  1.000000 )  
               b(2) = ( -1.000000  1.000000  0.000000 )  
               b(3) = (  0.000000 -1.000000  1.000000 )  


     PseudoPot. # 1 for Li read from file:
     ./pseudopot/Li.pbe-mt_fhi.UPF
     MD5 check sum: 3419f5616d131090147e867976aae79b
     Pseudo is Norm-conserving + core correction, Zval =  1.0
     Generated using FHI98PP, converted with fhi2upf.x v.5.0.2
     Using radial grid of  433 points,  3 beta functions with: 
                l(1) =   0
                l(2) =   1
                l(3) =   3

     atomic species   valence    mass     pseudopotential
     Li                1.00     6.94000     Li( 1.00)

     48 Sym. Ops., with inversion, found



   Cartesian axes

     site n.     atom                  positions (alat units)
         1        Li     tau(   1) = (   0.0000000   0.0000000   0.0000000  )

     number of k points=    44  Methfessel-Paxton smearing, width (Ry)=  0.0100
                       cart. coord. in units 2pi/alat
        k(    1) = (   0.0000000   0.0000000   0.1000000), wk =   0.0120000
        k(    2) = (   0.0000000  -0.1000000   0.2000000), wk =   0.0480000
        k(    3) = (   0.0000000  -0.2000000   0.3000000), wk =   0.0480000
        k(    4) = (   0.0000000  -0.3000000   0.4000000), wk =   0.0480000
        k(    5) = (   0.0000000  -0.4000000   0.5000000), wk =   0.0480000
        k(    6) = (  -0.1000000   0.1000000   0.1000000), wk =   0.0160000
        k(    7) = (  -0.1000000  -0.1000000   0.3000000), wk =   0.0480000
        k(    8) = (  -0.1000000  -0.2000000   0.4000000), wk =   0.0960000
        k(    9) = (  -0.1000000  -0.3000000   0.5000000), wk =   0.0960000
        k(   10) = (  -0.1000000   0.6000000  -0.4000000), wk =   0.0480000
        k(   11) = (  -0.2000000   0.2000000   0.1000000), wk =   0.0480000
        k(   12) = (  -0.2000000  -0.2000000   0.5000000), wk =   0.0480000
        k(   13) = (  -0.2000000   0.7000000  -0.4000000), wk =   0.0960000
        k(   14) = (  -0.3000000   0.3000000   0.1000000), wk =   0.0480000
        k(   15) = (  -0.3000000   0.2000000   0.2000000), wk =   0.0480000
        k(   16) = (  -0.3000000   0.7000000  -0.3000000), wk =   0.0160000
        k(   17) = (  -0.4000000   0.4000000   0.1000000), wk =   0.0480000
        k(   18) = (  -0.4000000   0.3000000   0.2000000), wk =   0.0960000
        k(   19) = (   0.5000000  -0.5000000   0.1000000), wk =   0.0240000
        k(   20) = (   0.5000000  -0.6000000   0.2000000), wk =   0.0960000
        k(   21) = (   0.5000000  -0.7000000   0.3000000), wk =   0.0480000
        k(   22) = (   0.4000000  -0.6000000   0.3000000), wk =   0.0480000
        k(   23) = (   0.0000000   0.0000000   0.3000000), wk =   0.0120000
        k(   24) = (   0.0000000  -0.1000000   0.4000000), wk =   0.0480000
        k(   25) = (   0.0000000  -0.2000000   0.5000000), wk =   0.0480000
        k(   26) = (   0.0000000  -0.3000000   0.6000000), wk =   0.0480000
        k(   27) = (  -0.1000000  -0.1000000   0.5000000), wk =   0.0480000
        k(   28) = (  -0.1000000  -0.2000000   0.6000000), wk =   0.0960000
        k(   29) = (  -0.1000000   0.7000000  -0.3000000), wk =   0.0480000
        k(   30) = (  -0.2000000   0.8000000  -0.3000000), wk =   0.0480000
        k(   31) = (  -0.3000000   0.3000000   0.3000000), wk =   0.0160000
        k(   32) = (   0.6000000  -0.6000000   0.3000000), wk =   0.0480000
        k(   33) = (   0.5000000  -0.5000000   0.3000000), wk =   0.0240000
        k(   34) = (   0.5000000  -0.6000000   0.4000000), wk =   0.0480000
        k(   35) = (   0.0000000   0.0000000   0.5000000), wk =   0.0120000
        k(   36) = (   0.0000000  -0.1000000   0.6000000), wk =   0.0480000
        k(   37) = (   0.0000000  -0.2000000   0.7000000), wk =   0.0480000
        k(   38) = (  -0.1000000  -0.1000000   0.7000000), wk =   0.0480000
        k(   39) = (  -0.1000000   0.8000000  -0.2000000), wk =   0.0480000
        k(   40) = (   0.5000000  -0.5000000   0.5000000), wk =   0.0040000
        k(   41) = (   0.0000000   0.0000000   0.7000000), wk =   0.0120000
        k(   42) = (   0.0000000  -0.1000000   0.8000000), wk =   0.0480000
        k(   43) = (  -0.1000000   0.9000000  -0.1000000), wk =   0.0160000
        k(   44) = (   0.0000000   0.0000000   0.9000000), wk =   0.0120000

     Dense  grid:     1505 G-vectors     FFT dimensions: (  15,  15,  15)

     Estimated max dynamical RAM per process >       1.90 MB

     Initial potential from superposition of free atoms

     starting charge       0.9960, renormalised to       1.0000
     Starting wfcs are   16 randomized atomic wfcs

     total cpu time spent up to now is        0.1 secs

     Self-consistent Calculation

     iteration #  1     ecut=    20.00 Ry     beta= 0.70
     Davidson diagonalization with overlap
     ethr =  1.00E-02,  avg # of iterations =  4.4

     Threshold (ethr) on eigenvalues was too large:
     Diagonalizing with lowered threshold

     Davidson diagonalization with overlap
     ethr =  2.10E-05,  avg # of iterations =  3.9

     total cpu time spent up to now is        0.2 secs

     total energy              =      -0.68954833 Ry
     estimated scf accuracy    <       0.00021015 Ry

     iteration #  2     ecut=    20.00 Ry     beta= 0.70
     Davidson diagonalization with overlap
     ethr =  2.10E-05,  avg # of iterations =  1.0

     total cpu time spent up to now is        0.2 secs

     total energy              =      -0.68954556 Ry
     estimated scf accuracy    <       0.00001821 Ry

     iteration #  3     ecut=    20.00 Ry     beta= 0.70
     Davidson diagonalization with overlap
     ethr =  1.82E-06,  avg # of iterations =  1.4

     total cpu time spent up to now is        0.3 secs

     End of self-consistent calculation

          k = 0.0000 0.0000 0.1000 (   193 PWs)   bands (ev):

    -2.9890  15.3855  15.3855  15.6911  19.6960

          k = 0.0000-0.1000 0.2000 (   190 PWs)   bands (ev):

    -2.5935  13.0631  13.9836  15.1261  17.9319

          k = 0.0000-0.2000 0.3000 (   190 PWs)   bands (ev):

    -1.8048   9.7757  12.6106  14.2652  17.1362

          k = 0.0000-0.3000 0.4000 (   188 PWs)   bands (ev):

    -0.6534   6.7700  11.6368  13.5108  16.0854

          k = 0.0000-0.4000 0.5000 (   189 PWs)   bands (ev):

     0.6200   4.5407  11.1395  13.0976  15.5570

          k =-0.1000 0.1000 0.1000 (   189 PWs)   bands (ev):

    -2.7917  14.3546  14.7183  14.7183  18.9656

          k =-0.1000-0.1000 0.3000 (   189 PWs)   bands (ev):

    -1.9982  11.2124  11.8462  14.4019  17.0045

          k =-0.1000-0.2000 0.4000 (   191 PWs)   bands (ev):

    -1.0132   8.2546  10.5618  13.5805  17.0170

          k =-0.1000-0.3000 0.5000 (   187 PWs)   bands (ev):

     0.2891   5.5846   9.8478  12.9677  17.0996

          k =-0.1000 0.6000-0.4000 (   191 PWs)   bands (ev):

     1.2363   4.1683   9.6092  12.7497  17.0404

          k =-0.2000 0.2000 0.1000 (   192 PWs)   bands (ev):

    -2.1997  11.4631  13.1201  13.4446  18.4281

          k =-0.2000-0.2000 0.5000 (   187 PWs)   bands (ev):

     0.1637   6.4686   8.6671  13.0744  17.2679

          k =-0.2000 0.7000-0.4000 (   192 PWs)   bands (ev):

     1.5755   4.4656   7.9251  12.7658  17.8266

          k =-0.3000 0.3000 0.1000 (   190 PWs)   bands (ev):

    -1.2213   8.2196  12.0765  12.3316  17.6695

          k =-0.3000 0.2000 0.2000 (   187 PWs)   bands (ev):

    -1.4105   9.5722  10.6684  12.1987  19.3335

          k =-0.3000 0.7000-0.3000 (   191 PWs)   bands (ev):

     3.0792   3.0792   7.1813  12.7031  19.1691

          k =-0.4000 0.4000 0.1000 (   187 PWs)   bands (ev):

     0.0629   5.5106  11.4206  11.6211  17.0594

          k =-0.4000 0.3000 0.2000 (   187 PWs)   bands (ev):

    -0.2436   6.8211   9.4847  11.4677  19.4431

          k = 0.5000-0.5000 0.1000 (   188 PWs)   bands (ev):

     0.9738   4.1176  11.1975  11.3794  16.8395

          k = 0.5000-0.6000 0.2000 (   187 PWs)   bands (ev):

     1.1055   4.5583   8.9751  11.0921  19.2879

          k = 0.5000-0.7000 0.3000 (   187 PWs)   bands (ev):

     1.1032   5.1878   7.7137  11.0386  20.8895

          k = 0.4000-0.6000 0.3000 (   193 PWs)   bands (ev):

     2.2959   3.7827   7.2265  10.8932  21.0148

          k = 0.0000 0.0000 0.3000 (   189 PWs)   bands (ev):

    -2.1931  12.4420  12.4420  14.6283  15.4034

          k = 0.0000-0.1000 0.4000 (   190 PWs)   bands (ev):

    -1.3935   9.8897  11.0107  14.0034  14.9087

          k = 0.0000-0.2000 0.5000 (   189 PWs)   bands (ev):

    -0.2193   6.9903  10.0111  13.3447  15.7549

          k = 0.0000-0.3000 0.6000 (   188 PWs)   bands (ev):

     1.1143   4.7355   9.5040  12.9931  16.8506

          k =-0.1000-0.1000 0.5000 (   186 PWs)   bands (ev):

    -0.3896   8.1804   9.2848  14.0626  14.0742

          k =-0.1000-0.2000 0.6000 (   192 PWs)   bands (ev):

     0.9600   5.8176   8.3984  13.5461  15.1039

          k =-0.1000 0.7000-0.3000 (   200 PWs)   bands (ev):

     2.0211   4.3482   8.1384  13.3624  16.0648

          k =-0.2000 0.8000-0.3000 (   197 PWs)   bands (ev):

     2.4501   4.3701   7.2607  14.1962  15.2863

          k =-0.3000 0.3000 0.3000 (   186 PWs)   bands (ev):

    -0.4255   8.3212   8.3212  10.7516  21.0548

          k = 0.6000-0.6000 0.3000 (   190 PWs)   bands (ev):

     0.9225   5.7001   7.5559  10.2278  22.1961

          k = 0.5000-0.5000 0.3000 (   194 PWs)   bands (ev):

     2.0338   4.1370   7.2992  10.0691  22.0939

          k = 0.5000-0.6000 0.4000 (   190 PWs)   bands (ev):

     2.4394   4.4093   6.0784   9.8532  23.3565

          k = 0.0000 0.0000 0.5000 (   184 PWs)   bands (ev):

    -0.5719   9.5569   9.5569  12.1801  13.9455

          k = 0.0000-0.1000 0.6000 (   193 PWs)   bands (ev):

     0.6429   7.4245   8.5466  11.9549  13.9925

          k = 0.0000-0.2000 0.7000 (   198 PWs)   bands (ev):

     2.0875   5.1881   8.0352  12.2104  14.9205

          k =-0.1000-0.1000 0.7000 (   197 PWs)   bands (ev):

     2.0502   6.1053   7.4318  11.9825  13.9071

          k =-0.1000 0.8000-0.2000 (   198 PWs)   bands (ev):

     3.3160   4.6862   7.0705  12.4986  14.2581

          k = 0.5000-0.5000 0.5000 (   180 PWs)   bands (ev):

     4.1489   4.1489   4.1489   9.5588  25.5597

          k = 0.0000 0.0000 0.7000 (   196 PWs)   bands (ev):

     1.9152   7.5328   7.5328  10.0306  13.4686

          k = 0.0000-0.1000 0.8000 (   198 PWs)   bands (ev):

     3.4946   5.9414   7.0196  10.3788  12.6611

          k =-0.1000 0.9000-0.1000 (   197 PWs)   bands (ev):

     5.0594   5.0594   6.5481  10.9306  10.9306

          k = 0.0000 0.0000 0.9000 (   196 PWs)   bands (ev):

     5.1895   6.5056   6.5056   8.9557  10.1946

     the Fermi energy is     0.6687 ev

!    total energy              =      -0.68954561 Ry
     estimated scf accuracy    <          2.0E-10 Ry
     smearing contrib. (-TS)   =      -0.00007817 Ry
     internal energy E=F+TS    =      -0.68946743 Ry

     The total energy is F=E-TS. E is the sum of the following terms:
     one-electron contribution =       0.43824081 Ry
     hartree contribution      =       0.00113396 Ry
     xc contribution           =      -0.55301408 Ry
     ewald contribution        =      -0.57582812 Ry

     convergence has been achieved in   3 iterations

     Forces acting on atoms (cartesian axes, Ry/au):

     atom    1 type  1   force =     0.00000000    0.00000000    0.00000000

     Total force =     0.000000     Total SCF correction =     0.000000


     Computing stress (Cartesian axis) and pressure

          total   stress  (Ry/bohr**3)                   (kbar)     P=       -0.74
  -0.00000502  -0.00000000   0.00000000           -0.74       -0.00        0.00
  -0.00000000  -0.00000502   0.00000000           -0.00       -0.74        0.00
   0.00000000   0.00000000  -0.00000502            0.00        0.00       -0.74


     Writing all to output data dir ./QE-outdir/li.save/ :
     XML data file, charge density, pseudopotentials, collected wavefunctions

     init_run     :      0.04s CPU      0.05s WALL (       1 calls)
     electrons    :      0.13s CPU      0.21s WALL (       1 calls)
     forces       :      0.00s CPU      0.00s WALL (       1 calls)
     stress       :      0.02s CPU      0.02s WALL (       1 calls)

     Called by init_run:
     wfcinit      :      0.03s CPU      0.04s WALL (       1 calls)
     potinit      :      0.00s CPU      0.00s WALL (       1 calls)
     hinit0       :      0.01s CPU      0.01s WALL (       1 calls)

     Called by electrons:
     c_bands      :      0.12s CPU      0.20s WALL (       4 calls)
     sum_band     :      0.01s CPU      0.01s WALL (       4 calls)
     v_of_rho     :      0.00s CPU      0.00s WALL (       4 calls)
     mix_rho      :      0.00s CPU      0.00s WALL (       4 calls)

     Called by c_bands:
     init_us_2    :      0.01s CPU      0.01s WALL (     484 calls)
     cegterg      :      0.11s CPU      0.19s WALL (     176 calls)

     Called by *egterg:
     cdiaghg      :      0.07s CPU      0.16s WALL (     601 calls)
     h_psi        :      0.05s CPU      0.06s WALL (     689 calls)
     g_psi        :      0.00s CPU      0.00s WALL (     469 calls)

     Called by h_psi:
     h_psi:calbec :      0.00s CPU      0.00s WALL (     689 calls)
     vloc_psi     :      0.05s CPU      0.05s WALL (     689 calls)
                                        0.00s GPU  (     689 calls)
     add_vuspsi   :      0.00s CPU      0.00s WALL (     689 calls)

     General routines
     calbec       :      0.01s CPU      0.01s WALL (    1437 calls)
     fft          :      0.00s CPU      0.00s WALL (      20 calls)
     ffts         :      0.00s CPU      0.00s WALL (       4 calls)
     fftw         :      0.04s CPU      0.04s WALL (    7234 calls)

     Parallel routines

     PWSCF        :      0.20s CPU      0.31s WALL


   This run was terminated on:  23:30:55  31Jan2026            

=------------------------------------------------------------------------------=
   JOB DONE.
=------------------------------------------------------------------------------=
