
     Program PWSCF v.7.5 starts on 26Jan2026 at 14: 5:37 

     This program is part of the open-source Quantum ESPRESSO suite
     for quantum simulation of materials; please cite
         "P. Giannozzi et al., J. Phys.:Condens. Matter 21 395502 (2009);
         "P. Giannozzi et al., J. Phys.:Condens. Matter 29 465901 (2017);
         "P. Giannozzi et al., J. Chem. Phys. 152 154105 (2020);
          URL http://www.quantum-espresso.org", 
     in publications or presentations arising from this work. More details at
     http://www.quantum-espresso.org/quote

     Parallel version (MPI), running on     1 processors

     MPI processes distributed on     1 nodes
     0 MiB available memory on the printing compute node when the environment starts

     Waiting for input...
     Reading input from standard input
     Message from routine read_cards :
     DEPRECATED: no units specified in ATOMIC_POSITIONS card
     Message from routine read_cards :
     ATOMIC_POSITIONS: units set to alat

     Current dimensions of program PWSCF are:
     Max number of different atomic species (ntypx) = 10
     Max number of k-points (npk) =  40000
     Max angular momentum in pseudopotentials (lmaxx) =  4
     file Li.pbe-mt_fhi.UPF: wavefunction(s)  2p 4f renormalized

     IMPORTANT: XC functional enforced from input :
     Exchange-correlation= PZ
                           (   1   1   0   0   0   0   0)
     Any further DFT definition will be discarded
     Please, verify this is what you really want


     Subspace diagonalization in iterative solution of the eigenvalue problem:
     a serial algorithm will be used


     G-vector sticks info
     --------------------
     sticks:   dense  smooth     PW     G-vecs:    dense   smooth      PW
     Sum         201     201     67                 1745     1745     369

     Using Slab Decomposition



     bravais-lattice index     =            3
     lattice parameter (alat)  =       6.6500  a.u.
     unit-cell volume          =     147.0398 (a.u.)^3
     number of atoms/cell      =            1
     number of atomic types    =            1
     number of electrons       =         1.00
     number of Kohn-Sham states=            5
     kinetic-energy cutoff     =      20.0000  Ry
     charge density cutoff     =      80.0000  Ry
     scf convergence threshold =      1.0E-08
     mixing beta               =       0.7000
     number of iterations used =            8  plain     mixing
     Exchange-correlation= PZ
                           (   1   1   0   0   0   0   0)

     celldm(1)=   6.650000  celldm(2)=   0.000000  celldm(3)=   0.000000
     celldm(4)=   0.000000  celldm(5)=   0.000000  celldm(6)=   0.000000

     crystal axes: (cart. coord. in units of alat)
               a(1) = (   0.500000   0.500000   0.500000 )  
               a(2) = (  -0.500000   0.500000   0.500000 )  
               a(3) = (  -0.500000  -0.500000   0.500000 )  

     reciprocal axes: (cart. coord. in units 2 pi/alat)
               b(1) = (  1.000000  0.000000  1.000000 )  
               b(2) = ( -1.000000  1.000000  0.000000 )  
               b(3) = (  0.000000 -1.000000  1.000000 )  


     PseudoPot. # 1 for Li read from file:
     ./pseudopot/Li.pbe-mt_fhi.UPF
     MD5 check sum: 3419f5616d131090147e867976aae79b
     Pseudo is Norm-conserving + core correction, Zval =  1.0
     Generated using FHI98PP, converted with fhi2upf.x v.5.0.2
     Using radial grid of  433 points,  3 beta functions with: 
                l(1) =   0
                l(2) =   1
                l(3) =   3

     atomic species   valence    mass     pseudopotential
     Li                1.00     6.94000     Li( 1.00)

     48 Sym. Ops., with inversion, found



   Cartesian axes

     site n.     atom                  positions (alat units)
         1        Li     tau(   1) = (   0.0000000   0.0000000   0.0000000  )

     number of k points=    44  Methfessel-Paxton smearing, width (Ry)=  0.0100
                       cart. coord. in units 2pi/alat
        k(    1) = (   0.0000000   0.0000000   0.1000000), wk =   0.0120000
        k(    2) = (   0.0000000  -0.1000000   0.2000000), wk =   0.0480000
        k(    3) = (   0.0000000  -0.2000000   0.3000000), wk =   0.0480000
        k(    4) = (   0.0000000  -0.3000000   0.4000000), wk =   0.0480000
        k(    5) = (   0.0000000  -0.4000000   0.5000000), wk =   0.0480000
        k(    6) = (  -0.1000000   0.1000000   0.1000000), wk =   0.0160000
        k(    7) = (  -0.1000000  -0.1000000   0.3000000), wk =   0.0480000
        k(    8) = (  -0.1000000  -0.2000000   0.4000000), wk =   0.0960000
        k(    9) = (  -0.1000000  -0.3000000   0.5000000), wk =   0.0960000
        k(   10) = (  -0.1000000   0.6000000  -0.4000000), wk =   0.0480000
        k(   11) = (  -0.2000000   0.2000000   0.1000000), wk =   0.0480000
        k(   12) = (  -0.2000000  -0.2000000   0.5000000), wk =   0.0480000
        k(   13) = (  -0.2000000   0.7000000  -0.4000000), wk =   0.0960000
        k(   14) = (  -0.3000000   0.3000000   0.1000000), wk =   0.0480000
        k(   15) = (  -0.3000000   0.2000000   0.2000000), wk =   0.0480000
        k(   16) = (  -0.3000000   0.7000000  -0.3000000), wk =   0.0160000
        k(   17) = (  -0.4000000   0.4000000   0.1000000), wk =   0.0480000
        k(   18) = (  -0.4000000   0.3000000   0.2000000), wk =   0.0960000
        k(   19) = (   0.5000000  -0.5000000   0.1000000), wk =   0.0240000
        k(   20) = (   0.5000000  -0.6000000   0.2000000), wk =   0.0960000
        k(   21) = (   0.5000000  -0.7000000   0.3000000), wk =   0.0480000
        k(   22) = (   0.4000000  -0.6000000   0.3000000), wk =   0.0480000
        k(   23) = (   0.0000000   0.0000000   0.3000000), wk =   0.0120000
        k(   24) = (   0.0000000  -0.1000000   0.4000000), wk =   0.0480000
        k(   25) = (   0.0000000  -0.2000000   0.5000000), wk =   0.0480000
        k(   26) = (   0.0000000  -0.3000000   0.6000000), wk =   0.0480000
        k(   27) = (  -0.1000000  -0.1000000   0.5000000), wk =   0.0480000
        k(   28) = (  -0.1000000  -0.2000000   0.6000000), wk =   0.0960000
        k(   29) = (  -0.1000000   0.7000000  -0.3000000), wk =   0.0480000
        k(   30) = (  -0.2000000   0.8000000  -0.3000000), wk =   0.0480000
        k(   31) = (  -0.3000000   0.3000000   0.3000000), wk =   0.0160000
        k(   32) = (   0.6000000  -0.6000000   0.3000000), wk =   0.0480000
        k(   33) = (   0.5000000  -0.5000000   0.3000000), wk =   0.0240000
        k(   34) = (   0.5000000  -0.6000000   0.4000000), wk =   0.0480000
        k(   35) = (   0.0000000   0.0000000   0.5000000), wk =   0.0120000
        k(   36) = (   0.0000000  -0.1000000   0.6000000), wk =   0.0480000
        k(   37) = (   0.0000000  -0.2000000   0.7000000), wk =   0.0480000
        k(   38) = (  -0.1000000  -0.1000000   0.7000000), wk =   0.0480000
        k(   39) = (  -0.1000000   0.8000000  -0.2000000), wk =   0.0480000
        k(   40) = (   0.5000000  -0.5000000   0.5000000), wk =   0.0040000
        k(   41) = (   0.0000000   0.0000000   0.7000000), wk =   0.0120000
        k(   42) = (   0.0000000  -0.1000000   0.8000000), wk =   0.0480000
        k(   43) = (  -0.1000000   0.9000000  -0.1000000), wk =   0.0160000
        k(   44) = (   0.0000000   0.0000000   0.9000000), wk =   0.0120000

     Dense  grid:     1745 G-vectors     FFT dimensions: (  18,  18,  18)

     Estimated max dynamical RAM per process >       2.29 MB

     Initial potential from superposition of free atoms

     starting charge       0.9960, renormalised to       1.0000
     Starting wfcs are   16 randomized atomic wfcs

     total cpu time spent up to now is        0.1 secs

     Self-consistent Calculation

     iteration #  1     ecut=    20.00 Ry     beta= 0.70
     Davidson diagonalization with overlap
     ethr =  1.00E-02,  avg # of iterations =  4.7

     Threshold (ethr) on eigenvalues was too large:
     Diagonalizing with lowered threshold

     Davidson diagonalization with overlap
     ethr =  1.56E-05,  avg # of iterations =  4.1

     total cpu time spent up to now is        0.3 secs

     total energy              =      -0.68807958 Ry
     estimated scf accuracy    <       0.00015588 Ry

     iteration #  2     ecut=    20.00 Ry     beta= 0.70
     Davidson diagonalization with overlap
     ethr =  1.56E-05,  avg # of iterations =  1.0

     total cpu time spent up to now is        0.3 secs

     total energy              =      -0.68807798 Ry
     estimated scf accuracy    <       0.00001369 Ry

     iteration #  3     ecut=    20.00 Ry     beta= 0.70
     Davidson diagonalization with overlap
     ethr =  1.37E-06,  avg # of iterations =  1.2

     total cpu time spent up to now is        0.4 secs

     End of self-consistent calculation

          k = 0.0000 0.0000 0.1000 (   213 PWs)   bands (ev):

    -3.1842  13.4751  13.4751  13.7277  17.5616

          k = 0.0000-0.1000 0.2000 (   217 PWs)   bands (ev):

    -2.8109  11.4169  12.2397  13.2398  15.9151

          k = 0.0000-0.2000 0.3000 (   217 PWs)   bands (ev):

    -2.0671   8.4574  11.0154  12.4941  15.2128

          k = 0.0000-0.3000 0.4000 (   221 PWs)   bands (ev):

    -0.9785   5.7132  10.1430  11.8309  14.2646

          k = 0.0000-0.4000 0.5000 (   220 PWs)   bands (ev):

     0.2504   3.6301   9.6967  11.4651  13.7877

          k =-0.1000 0.1000 0.1000 (   213 PWs)   bands (ev):

    -2.9979  12.5294  12.9109  12.9109  16.8326

          k =-0.1000-0.1000 0.3000 (   217 PWs)   bands (ev):

    -2.2502   9.8063  10.2816  12.6041  15.0784

          k =-0.1000-0.2000 0.4000 (   220 PWs)   bands (ev):

    -1.3228   7.1091   9.1342  11.8899  15.0629

          k =-0.1000-0.3000 0.5000 (   225 PWs)   bands (ev):

    -0.0899   4.6491   8.4923  11.3494  15.0939

          k =-0.1000 0.6000-0.4000 (   221 PWs)   bands (ev):

     0.8372   3.3021   8.2777  11.1563  15.0313

          k =-0.2000 0.2000 0.1000 (   218 PWs)   bands (ev):

    -2.4392   9.9920  11.4304  11.8031  16.3217

          k =-0.2000-0.2000 0.5000 (   222 PWs)   bands (ev):

    -0.2186   5.5514   7.3295  11.4412  15.3105

          k =-0.2000 0.7000-0.4000 (   223 PWs)   bands (ev):

     1.1151   3.7016   6.6439  11.1639  15.7808

          k =-0.3000 0.3000 0.1000 (   220 PWs)   bands (ev):

    -1.5163   7.0520  10.4827  10.8181  15.6516

          k =-0.3000 0.2000 0.2000 (   220 PWs)   bands (ev):

    -1.6958   8.3441   9.2238  10.6057  17.0839

          k =-0.3000 0.7000-0.3000 (   225 PWs)   bands (ev):

     2.4986   2.4986   5.8952  11.1017  17.0271

          k =-0.4000 0.4000 0.1000 (   222 PWs)   bands (ev):

    -0.2960   4.5586   9.8884  10.1847  15.1105

          k =-0.4000 0.3000 0.2000 (   222 PWs)   bands (ev):

    -0.5972   5.8255   8.1735   9.9201  17.1881

          k = 0.5000-0.5000 0.1000 (   222 PWs)   bands (ev):

     0.6005   3.2310   9.6867   9.9688  14.9147

          k = 0.5000-0.6000 0.2000 (   220 PWs)   bands (ev):

     0.6896   3.7183   7.7219   9.5686  17.0551

          k = 0.5000-0.7000 0.3000 (   217 PWs)   bands (ev):

     0.6645   4.3997   6.4963   9.4989  18.4256

          k = 0.4000-0.6000 0.3000 (   216 PWs)   bands (ev):

     1.7931   3.0992   6.0425   9.3554  18.5853

          k = 0.0000 0.0000 0.3000 (   213 PWs)   bands (ev):

    -2.4343  10.8785  10.8785  12.7196  13.6844

          k = 0.0000-0.1000 0.4000 (   222 PWs)   bands (ev):

    -1.6834   8.5837   9.5983  12.2011  13.1572

          k = 0.0000-0.2000 0.5000 (   223 PWs)   bands (ev):

    -0.5792   5.9418   8.7010  11.6061  13.9050

          k = 0.0000-0.3000 0.6000 (   222 PWs)   bands (ev):

     0.6962   3.8434   8.2448  11.2832  14.8736

          k =-0.1000-0.1000 0.5000 (   224 PWs)   bands (ev):

    -0.7439   7.0846   7.9801  12.2105  12.4387

          k =-0.1000-0.2000 0.6000 (   221 PWs)   bands (ev):

     0.5228   4.9165   7.1706  11.8030  13.3191

          k =-0.1000 0.7000-0.3000 (   222 PWs)   bands (ev):

     1.5446   3.5273   6.9367  11.6348  14.1803

          k =-0.2000 0.8000-0.3000 (   225 PWs)   bands (ev):

     1.9111   3.6606   6.0349  12.3683  13.5336

          k =-0.3000 0.3000 0.3000 (   222 PWs)   bands (ev):

    -0.7704   7.2221   7.2221   9.1186  18.6254

          k = 0.6000-0.6000 0.3000 (   222 PWs)   bands (ev):

     0.4945   4.8316   6.5343   8.6011  19.3854

          k = 0.5000-0.5000 0.3000 (   222 PWs)   bands (ev):

     1.5569   3.3668   6.3034   8.4457  19.5714

          k = 0.5000-0.6000 0.4000 (   226 PWs)   bands (ev):

     1.9046   3.6987   5.1618   8.2040  20.6622

          k = 0.0000 0.0000 0.5000 (   233 PWs)   bands (ev):

    -0.9180   8.2951   8.2951  10.7732  11.9989

          k = 0.0000-0.1000 0.6000 (   225 PWs)   bands (ev):

     0.2143   6.3699   7.3882  10.5130  12.0601

          k = 0.0000-0.2000 0.7000 (   223 PWs)   bands (ev):

     1.5745   4.3076   6.9282  10.6179  13.0242

          k =-0.1000-0.1000 0.7000 (   225 PWs)   bands (ev):

     1.5201   5.2169   6.3166  10.5642  11.9833

          k =-0.1000 0.8000-0.2000 (   226 PWs)   bands (ev):

     2.7101   3.9036   5.9731  10.9650  12.6082

          k = 0.5000-0.5000 0.5000 (   216 PWs)   bands (ev):

     3.4642   3.4642   3.4642   7.8596  22.6335

          k = 0.0000 0.0000 0.7000 (   229 PWs)   bands (ev):

     1.3855   6.4763   6.4763   8.8319  11.5444

          k = 0.0000-0.1000 0.8000 (   228 PWs)   bands (ev):

     2.8451   5.0340   6.0144   9.1069  11.0800

          k =-0.1000 0.9000-0.1000 (   230 PWs)   bands (ev):

     4.2744   4.2744   5.5382   9.6153   9.6153

          k = 0.0000 0.0000 0.9000 (   236 PWs)   bands (ev):

     4.3765   5.5516   5.5516   7.8611   8.9456

     the Fermi energy is     0.2726 ev

!    total energy              =      -0.68807803 Ry
     estimated scf accuracy    <          4.4E-10 Ry
     smearing contrib. (-TS)   =      -0.00004797 Ry
     internal energy E=F+TS    =      -0.68803006 Ry

     The total energy is F=E-TS. E is the sum of the following terms:
     one-electron contribution =       0.39144299 Ry
     hartree contribution      =       0.00087189 Ry
     xc contribution           =      -0.53309174 Ry
     ewald contribution        =      -0.54725320 Ry

     convergence has been achieved in   3 iterations

     Forces acting on atoms (cartesian axes, Ry/au):

     atom    1 type  1   force =     0.00000000    0.00000000    0.00000000

     Total force =     0.000000     Total SCF correction =     0.000000


     Computing stress (Cartesian axis) and pressure

          total   stress  (Ry/bohr**3)                   (kbar)     P=      -18.43
  -0.00012529  -0.00000000  -0.00000000          -18.43       -0.00       -0.00
  -0.00000000  -0.00012529   0.00000000           -0.00      -18.43        0.00
  -0.00000000   0.00000000  -0.00012529           -0.00        0.00      -18.43


     Writing all to output data dir ./QE-outdir/li.save/ :
     XML data file, charge density, pseudopotentials, collected wavefunctions

     init_run     :      0.06s CPU      0.08s WALL (       1 calls)
     electrons    :      0.22s CPU      0.31s WALL (       1 calls)
     forces       :      0.00s CPU      0.00s WALL (       1 calls)
     stress       :      0.03s CPU      0.03s WALL (       1 calls)

     Called by init_run:
     wfcinit      :      0.05s CPU      0.06s WALL (       1 calls)
     potinit      :      0.00s CPU      0.00s WALL (       1 calls)
     hinit0       :      0.01s CPU      0.01s WALL (       1 calls)

     Called by electrons:
     c_bands      :      0.19s CPU      0.29s WALL (       4 calls)
     sum_band     :      0.03s CPU      0.03s WALL (       4 calls)
     v_of_rho     :      0.00s CPU      0.00s WALL (       4 calls)
     mix_rho      :      0.00s CPU      0.00s WALL (       4 calls)

     Called by c_bands:
     init_us_2    :      0.01s CPU      0.01s WALL (     484 calls)
     cegterg      :      0.18s CPU      0.28s WALL (     176 calls)

     Called by *egterg:
     cdiaghg      :      0.07s CPU      0.17s WALL (     615 calls)
     h_psi        :      0.15s CPU      0.15s WALL (     703 calls)
     g_psi        :      0.00s CPU      0.00s WALL (     483 calls)

     Called by h_psi:
     h_psi:calbec :      0.00s CPU      0.00s WALL (     703 calls)
     vloc_psi     :      0.14s CPU      0.14s WALL (     703 calls)
                                        0.00s GPU  (     703 calls)
     add_vuspsi   :      0.00s CPU      0.00s WALL (     703 calls)

     General routines
     calbec       :      0.01s CPU      0.01s WALL (    1451 calls)
     fft          :      0.00s CPU      0.00s WALL (      20 calls)
     ffts         :      0.00s CPU      0.00s WALL (       4 calls)
     fftw         :      0.14s CPU      0.15s WALL (    7366 calls)

     Parallel routines

     PWSCF        :      0.32s CPU      0.43s WALL


   This run was terminated on:  14: 5:38  26Jan2026            

=------------------------------------------------------------------------------=
   JOB DONE.
=------------------------------------------------------------------------------=
