
     Program PWSCF v.7.5 starts on 26Jan2026 at 14: 5:34 

     This program is part of the open-source Quantum ESPRESSO suite
     for quantum simulation of materials; please cite
         "P. Giannozzi et al., J. Phys.:Condens. Matter 21 395502 (2009);
         "P. Giannozzi et al., J. Phys.:Condens. Matter 29 465901 (2017);
         "P. Giannozzi et al., J. Chem. Phys. 152 154105 (2020);
          URL http://www.quantum-espresso.org", 
     in publications or presentations arising from this work. More details at
     http://www.quantum-espresso.org/quote

     Parallel version (MPI), running on     1 processors

     MPI processes distributed on     1 nodes
     0 MiB available memory on the printing compute node when the environment starts

     Waiting for input...
     Reading input from standard input
     Message from routine read_cards :
     DEPRECATED: no units specified in ATOMIC_POSITIONS card
     Message from routine read_cards :
     ATOMIC_POSITIONS: units set to alat

     Current dimensions of program PWSCF are:
     Max number of different atomic species (ntypx) = 10
     Max number of k-points (npk) =  40000
     Max angular momentum in pseudopotentials (lmaxx) =  4
     file Li.pbe-mt_fhi.UPF: wavefunction(s)  2p 4f renormalized

     IMPORTANT: XC functional enforced from input :
     Exchange-correlation= PZ
                           (   1   1   0   0   0   0   0)
     Any further DFT definition will be discarded
     Please, verify this is what you really want


     Subspace diagonalization in iterative solution of the eigenvalue problem:
     a serial algorithm will be used


     G-vector sticks info
     --------------------
     sticks:   dense  smooth     PW     G-vecs:    dense   smooth      PW
     Sum         173     173     63                 1433     1433     321

     Using Slab Decomposition



     bravais-lattice index     =            3
     lattice parameter (alat)  =       6.2000  a.u.
     unit-cell volume          =     119.1640 (a.u.)^3
     number of atoms/cell      =            1
     number of atomic types    =            1
     number of electrons       =         1.00
     number of Kohn-Sham states=            5
     kinetic-energy cutoff     =      20.0000  Ry
     charge density cutoff     =      80.0000  Ry
     scf convergence threshold =      1.0E-08
     mixing beta               =       0.7000
     number of iterations used =            8  plain     mixing
     Exchange-correlation= PZ
                           (   1   1   0   0   0   0   0)

     celldm(1)=   6.200000  celldm(2)=   0.000000  celldm(3)=   0.000000
     celldm(4)=   0.000000  celldm(5)=   0.000000  celldm(6)=   0.000000

     crystal axes: (cart. coord. in units of alat)
               a(1) = (   0.500000   0.500000   0.500000 )  
               a(2) = (  -0.500000   0.500000   0.500000 )  
               a(3) = (  -0.500000  -0.500000   0.500000 )  

     reciprocal axes: (cart. coord. in units 2 pi/alat)
               b(1) = (  1.000000  0.000000  1.000000 )  
               b(2) = ( -1.000000  1.000000  0.000000 )  
               b(3) = (  0.000000 -1.000000  1.000000 )  


     PseudoPot. # 1 for Li read from file:
     ./pseudopot/Li.pbe-mt_fhi.UPF
     MD5 check sum: 3419f5616d131090147e867976aae79b
     Pseudo is Norm-conserving + core correction, Zval =  1.0
     Generated using FHI98PP, converted with fhi2upf.x v.5.0.2
     Using radial grid of  433 points,  3 beta functions with: 
                l(1) =   0
                l(2) =   1
                l(3) =   3

     atomic species   valence    mass     pseudopotential
     Li                1.00     6.94000     Li( 1.00)

     48 Sym. Ops., with inversion, found



   Cartesian axes

     site n.     atom                  positions (alat units)
         1        Li     tau(   1) = (   0.0000000   0.0000000   0.0000000  )

     number of k points=    44  Methfessel-Paxton smearing, width (Ry)=  0.0100
                       cart. coord. in units 2pi/alat
        k(    1) = (   0.0000000   0.0000000   0.1000000), wk =   0.0120000
        k(    2) = (   0.0000000  -0.1000000   0.2000000), wk =   0.0480000
        k(    3) = (   0.0000000  -0.2000000   0.3000000), wk =   0.0480000
        k(    4) = (   0.0000000  -0.3000000   0.4000000), wk =   0.0480000
        k(    5) = (   0.0000000  -0.4000000   0.5000000), wk =   0.0480000
        k(    6) = (  -0.1000000   0.1000000   0.1000000), wk =   0.0160000
        k(    7) = (  -0.1000000  -0.1000000   0.3000000), wk =   0.0480000
        k(    8) = (  -0.1000000  -0.2000000   0.4000000), wk =   0.0960000
        k(    9) = (  -0.1000000  -0.3000000   0.5000000), wk =   0.0960000
        k(   10) = (  -0.1000000   0.6000000  -0.4000000), wk =   0.0480000
        k(   11) = (  -0.2000000   0.2000000   0.1000000), wk =   0.0480000
        k(   12) = (  -0.2000000  -0.2000000   0.5000000), wk =   0.0480000
        k(   13) = (  -0.2000000   0.7000000  -0.4000000), wk =   0.0960000
        k(   14) = (  -0.3000000   0.3000000   0.1000000), wk =   0.0480000
        k(   15) = (  -0.3000000   0.2000000   0.2000000), wk =   0.0480000
        k(   16) = (  -0.3000000   0.7000000  -0.3000000), wk =   0.0160000
        k(   17) = (  -0.4000000   0.4000000   0.1000000), wk =   0.0480000
        k(   18) = (  -0.4000000   0.3000000   0.2000000), wk =   0.0960000
        k(   19) = (   0.5000000  -0.5000000   0.1000000), wk =   0.0240000
        k(   20) = (   0.5000000  -0.6000000   0.2000000), wk =   0.0960000
        k(   21) = (   0.5000000  -0.7000000   0.3000000), wk =   0.0480000
        k(   22) = (   0.4000000  -0.6000000   0.3000000), wk =   0.0480000
        k(   23) = (   0.0000000   0.0000000   0.3000000), wk =   0.0120000
        k(   24) = (   0.0000000  -0.1000000   0.4000000), wk =   0.0480000
        k(   25) = (   0.0000000  -0.2000000   0.5000000), wk =   0.0480000
        k(   26) = (   0.0000000  -0.3000000   0.6000000), wk =   0.0480000
        k(   27) = (  -0.1000000  -0.1000000   0.5000000), wk =   0.0480000
        k(   28) = (  -0.1000000  -0.2000000   0.6000000), wk =   0.0960000
        k(   29) = (  -0.1000000   0.7000000  -0.3000000), wk =   0.0480000
        k(   30) = (  -0.2000000   0.8000000  -0.3000000), wk =   0.0480000
        k(   31) = (  -0.3000000   0.3000000   0.3000000), wk =   0.0160000
        k(   32) = (   0.6000000  -0.6000000   0.3000000), wk =   0.0480000
        k(   33) = (   0.5000000  -0.5000000   0.3000000), wk =   0.0240000
        k(   34) = (   0.5000000  -0.6000000   0.4000000), wk =   0.0480000
        k(   35) = (   0.0000000   0.0000000   0.5000000), wk =   0.0120000
        k(   36) = (   0.0000000  -0.1000000   0.6000000), wk =   0.0480000
        k(   37) = (   0.0000000  -0.2000000   0.7000000), wk =   0.0480000
        k(   38) = (  -0.1000000  -0.1000000   0.7000000), wk =   0.0480000
        k(   39) = (  -0.1000000   0.8000000  -0.2000000), wk =   0.0480000
        k(   40) = (   0.5000000  -0.5000000   0.5000000), wk =   0.0040000
        k(   41) = (   0.0000000   0.0000000   0.7000000), wk =   0.0120000
        k(   42) = (   0.0000000  -0.1000000   0.8000000), wk =   0.0480000
        k(   43) = (  -0.1000000   0.9000000  -0.1000000), wk =   0.0160000
        k(   44) = (   0.0000000   0.0000000   0.9000000), wk =   0.0120000

     Dense  grid:     1433 G-vectors     FFT dimensions: (  15,  15,  15)

     Estimated max dynamical RAM per process >       1.82 MB

     Initial potential from superposition of free atoms

     starting charge       0.9960, renormalised to       1.0000
     Starting wfcs are   16 randomized atomic wfcs

     total cpu time spent up to now is        0.1 secs

     Self-consistent Calculation

     iteration #  1     ecut=    20.00 Ry     beta= 0.70
     Davidson diagonalization with overlap
     ethr =  1.00E-02,  avg # of iterations =  4.3

     Threshold (ethr) on eigenvalues was too large:
     Diagonalizing with lowered threshold

     Davidson diagonalization with overlap
     ethr =  2.40E-05,  avg # of iterations =  3.8

     total cpu time spent up to now is        0.2 secs

     total energy              =      -0.68935539 Ry
     estimated scf accuracy    <       0.00024095 Ry

     iteration #  2     ecut=    20.00 Ry     beta= 0.70
     Davidson diagonalization with overlap
     ethr =  2.41E-05,  avg # of iterations =  1.0

     total cpu time spent up to now is        0.2 secs

     total energy              =      -0.68935219 Ry
     estimated scf accuracy    <       0.00002078 Ry

     iteration #  3     ecut=    20.00 Ry     beta= 0.70
     Davidson diagonalization with overlap
     ethr =  2.08E-06,  avg # of iterations =  1.5

     total cpu time spent up to now is        0.3 secs

     End of self-consistent calculation

          k = 0.0000 0.0000 0.1000 (   181 PWs)   bands (ev):

    -2.8975  16.1619  16.1619  16.4869  20.5602

          k = 0.0000-0.1000 0.2000 (   183 PWs)   bands (ev):

    -2.4943  13.7296  14.6900  15.8907  18.7490

          k = 0.0000-0.2000 0.3000 (   181 PWs)   bands (ev):

    -1.6899  10.3112  13.2575  14.9828  17.9156

          k = 0.0000-0.3000 0.4000 (   180 PWs)   bands (ev):

    -0.5163   7.2016  12.2428  14.1912  16.8233

          k = 0.0000-0.4000 0.5000 (   182 PWs)   bands (ev):

     0.7718   4.9162  11.7245  13.7584  16.2741

          k =-0.1000 0.1000 0.1000 (   183 PWs)   bands (ev):

    -2.6965  15.0942  15.4505  15.4505  19.8309

          k =-0.1000-0.1000 0.3000 (   179 PWs)   bands (ev):

    -1.8869  11.7825  12.4813  15.1304  17.7851

          k =-0.1000-0.2000 0.4000 (   180 PWs)   bands (ev):

    -0.8811   8.7195  11.1430  14.2657  17.8087

          k =-0.1000-0.3000 0.5000 (   177 PWs)   bands (ev):

     0.4460   5.9667  10.3996  13.6233  17.9117

          k =-0.1000 0.6000-0.4000 (   176 PWs)   bands (ev):

     1.4002   4.5238  10.1516  13.3952  17.8541

          k =-0.2000 0.2000 0.1000 (   178 PWs)   bands (ev):

    -2.0927  12.0590  13.8082  14.1094  19.2822

          k =-0.2000-0.2000 0.5000 (   177 PWs)   bands (ev):

     0.3227   6.8412   9.2132  13.7368  18.0613

          k =-0.2000 0.7000-0.4000 (   178 PWs)   bands (ev):

     1.7641   4.7763   8.4507  13.4154  18.6546

          k =-0.3000 0.3000 0.1000 (   179 PWs)   bands (ev):

    -1.0948   8.6945  12.7246  12.9447  18.4872

          k =-0.3000 0.2000 0.2000 (   177 PWs)   bands (ev):

    -1.2873  10.0703  11.2519  12.8496  20.2452

          k =-0.3000 0.7000-0.3000 (   185 PWs)   bands (ev):

     3.3159   3.3159   7.7085  13.3520  20.0360

          k =-0.4000 0.4000 0.1000 (   179 PWs)   bands (ev):

     0.2119   5.9007  12.0435  12.2029  17.8488

          k =-0.4000 0.3000 0.2000 (   175 PWs)   bands (ev):

    -0.0956   7.2254  10.0156  12.1016  20.3561

          k = 0.5000-0.5000 0.1000 (   182 PWs)   bands (ev):

     1.1270   4.4825  11.8118  11.9505  17.6188

          k = 0.5000-0.6000 0.2000 (   178 PWs)   bands (ev):

     1.2760   4.9013   9.4825  11.7163  20.1903

          k = 0.5000-0.7000 0.3000 (   179 PWs)   bands (ev):

     1.2836   5.5081   8.2069  11.6712  21.8379

          k = 0.4000-0.6000 0.3000 (   177 PWs)   bands (ev):

     2.5015   4.0608   7.7075  11.5254  21.9944

          k = 0.0000 0.0000 0.3000 (   177 PWs)   bands (ev):

    -2.0852  13.0763  13.0763  15.4013  16.0998

          k = 0.0000-0.1000 0.4000 (   181 PWs)   bands (ev):

    -1.2682  10.4194  11.5837  14.7279  15.6253

          k = 0.0000-0.2000 0.5000 (   177 PWs)   bands (ev):

    -0.0685   7.4171  10.5433  14.0494  16.5060

          k = 0.0000-0.3000 0.6000 (   179 PWs)   bands (ev):

     1.2856   5.1014  10.0145  13.6871  17.6515

          k =-0.1000-0.1000 0.5000 (   182 PWs)   bands (ev):

    -0.2405   8.6249   9.8143  14.7208  14.8289

          k =-0.1000-0.2000 0.6000 (   182 PWs)   bands (ev):

     1.1402   6.1837   8.8989  14.2508  15.8302

          k =-0.1000 0.7000-0.3000 (   181 PWs)   bands (ev):

     2.2163   4.6829   8.6293  14.0631  16.8304

          k =-0.2000 0.8000-0.3000 (   187 PWs)   bands (ev):

     2.6702   4.6590   7.7619  14.9363  15.9967

          k =-0.3000 0.3000 0.3000 (   183 PWs)   bands (ev):

    -0.2806   8.7670   8.7670  11.4193  22.0385

          k = 0.6000-0.6000 0.3000 (   178 PWs)   bands (ev):

     1.0989   6.0530   7.9706  10.8959  23.2275

          k = 0.5000-0.5000 0.3000 (   176 PWs)   bands (ev):

     2.2291   4.4505   7.7035  10.7376  23.1150

          k = 0.5000-0.6000 0.4000 (   175 PWs)   bands (ev):

     2.6582   4.6984   6.4493  10.5334  24.4468

          k = 0.0000 0.0000 0.5000 (   184 PWs)   bands (ev):

    -0.4256  10.0679  10.0679  12.7505  14.7345

          k = 0.0000-0.1000 0.6000 (   184 PWs)   bands (ev):

     0.8207   7.8526   9.0170  12.5374  14.7796

          k = 0.0000-0.2000 0.7000 (   179 PWs)   bands (ev):

     2.2975   5.5474   8.4852  12.8530  15.6932

          k =-0.1000-0.1000 0.7000 (   187 PWs)   bands (ev):

     2.2674   6.4663   7.8852  12.5578  14.6845

          k =-0.1000 0.8000-0.2000 (   186 PWs)   bands (ev):

     3.5630   5.0041   7.5181  13.1172  14.9269

          k = 0.5000-0.5000 0.5000 (   180 PWs)   bands (ev):

     4.4273   4.4273   4.4273  10.2578  26.7426

          k = 0.0000 0.0000 0.7000 (   180 PWs)   bands (ev):

     2.1330   7.9620   7.9620  10.5170  14.2439

          k = 0.0000-0.1000 0.8000 (   184 PWs)   bands (ev):

     3.7596   6.3103   7.4278  10.8944  13.2955

          k =-0.1000 0.9000-0.1000 (   182 PWs)   bands (ev):

     5.3785   5.3785   6.9596  11.4642  11.4642

          k = 0.0000 0.0000 0.9000 (   180 PWs)   bands (ev):

     5.5206   6.8929   6.8929   9.4000  10.7014

     the Fermi energy is     0.8347 ev

!    total energy              =      -0.68935225 Ry
     estimated scf accuracy    <          2.8E-10 Ry
     smearing contrib. (-TS)   =      -0.00007529 Ry
     internal energy E=F+TS    =      -0.68927696 Ry

     The total energy is F=E-TS. E is the sum of the following terms:
     one-electron contribution =       0.45730431 Ry
     hartree contribution      =       0.00123760 Ry
     xc contribution           =      -0.56084570 Ry
     ewald contribution        =      -0.58697317 Ry

     convergence has been achieved in   3 iterations

     Forces acting on atoms (cartesian axes, Ry/au):

     atom    1 type  1   force =     0.00000000    0.00000000    0.00000000

     Total force =     0.000000     Total SCF correction =     0.000000


     Computing stress (Cartesian axis) and pressure

          total   stress  (Ry/bohr**3)                   (kbar)     P=        8.72
   0.00005928   0.00000000  -0.00000000            8.72        0.00       -0.00
   0.00000000   0.00005928   0.00000000            0.00        8.72        0.00
  -0.00000000   0.00000000   0.00005928           -0.00        0.00        8.72


     Writing all to output data dir ./QE-outdir/li.save/ :
     XML data file, charge density, pseudopotentials, collected wavefunctions

     init_run     :      0.04s CPU      0.05s WALL (       1 calls)
     electrons    :      0.12s CPU      0.21s WALL (       1 calls)
     forces       :      0.00s CPU      0.00s WALL (       1 calls)
     stress       :      0.02s CPU      0.02s WALL (       1 calls)

     Called by init_run:
     wfcinit      :      0.03s CPU      0.04s WALL (       1 calls)
     potinit      :      0.00s CPU      0.00s WALL (       1 calls)
     hinit0       :      0.01s CPU      0.01s WALL (       1 calls)

     Called by electrons:
     c_bands      :      0.11s CPU      0.20s WALL (       4 calls)
     sum_band     :      0.01s CPU      0.01s WALL (       4 calls)
     v_of_rho     :      0.00s CPU      0.00s WALL (       4 calls)
     mix_rho      :      0.00s CPU      0.00s WALL (       4 calls)

     Called by c_bands:
     init_us_2    :      0.01s CPU      0.01s WALL (     484 calls)
     cegterg      :      0.11s CPU      0.19s WALL (     176 calls)

     Called by *egterg:
     cdiaghg      :      0.07s CPU      0.16s WALL (     598 calls)
     h_psi        :      0.05s CPU      0.05s WALL (     686 calls)
     g_psi        :      0.00s CPU      0.00s WALL (     466 calls)

     Called by h_psi:
     h_psi:calbec :      0.00s CPU      0.00s WALL (     686 calls)
     vloc_psi     :      0.05s CPU      0.05s WALL (     686 calls)
                                        0.00s GPU  (     686 calls)
     add_vuspsi   :      0.00s CPU      0.00s WALL (     686 calls)

     General routines
     calbec       :      0.01s CPU      0.01s WALL (    1434 calls)
     fft          :      0.00s CPU      0.00s WALL (      20 calls)
     ffts         :      0.00s CPU      0.00s WALL (       4 calls)
     fftw         :      0.04s CPU      0.04s WALL (    7210 calls)

     Parallel routines

     PWSCF        :      0.19s CPU      0.30s WALL


   This run was terminated on:  14: 5:34  26Jan2026            

=------------------------------------------------------------------------------=
   JOB DONE.
=------------------------------------------------------------------------------=
