
     Program PWSCF v.7.5 starts on 31Jan2026 at 23:30:49 

     This program is part of the open-source Quantum ESPRESSO suite
     for quantum simulation of materials; please cite
         "P. Giannozzi et al., J. Phys.:Condens. Matter 21 395502 (2009);
         "P. Giannozzi et al., J. Phys.:Condens. Matter 29 465901 (2017);
         "P. Giannozzi et al., J. Chem. Phys. 152 154105 (2020);
          URL http://www.quantum-espresso.org", 
     in publications or presentations arising from this work. More details at
     http://www.quantum-espresso.org/quote

     Parallel version (MPI), running on     1 processors

     MPI processes distributed on     1 nodes
     0 MiB available memory on the printing compute node when the environment starts

     Waiting for input...
     Reading input from standard input
     Message from routine read_cards :
     DEPRECATED: no units specified in ATOMIC_POSITIONS card
     Message from routine read_cards :
     ATOMIC_POSITIONS: units set to alat

     Current dimensions of program PWSCF are:
     Max number of different atomic species (ntypx) = 10
     Max number of k-points (npk) =  40000
     Max angular momentum in pseudopotentials (lmaxx) =  4
     file Li.pbe-mt_fhi.UPF: wavefunction(s)  2p 4f renormalized

     IMPORTANT: XC functional enforced from input :
     Exchange-correlation= PZ
                           (   1   1   0   0   0   0   0)
     Any further DFT definition will be discarded
     Please, verify this is what you really want


     Subspace diagonalization in iterative solution of the eigenvalue problem:
     a serial algorithm will be used


     G-vector sticks info
     --------------------
     sticks:   dense  smooth     PW     G-vecs:    dense   smooth      PW
     Sum         173     173     63                 1433     1433     321

     Using Slab Decomposition



     bravais-lattice index     =            3
     lattice parameter (alat)  =       6.1300  a.u.
     unit-cell volume          =     115.1732 (a.u.)^3
     number of atoms/cell      =            1
     number of atomic types    =            1
     number of electrons       =         1.00
     number of Kohn-Sham states=            5
     kinetic-energy cutoff     =      20.0000  Ry
     charge density cutoff     =      80.0000  Ry
     scf convergence threshold =      1.0E-08
     mixing beta               =       0.7000
     number of iterations used =            8  plain     mixing
     Exchange-correlation= PZ
                           (   1   1   0   0   0   0   0)

     celldm(1)=   6.130000  celldm(2)=   0.000000  celldm(3)=   0.000000
     celldm(4)=   0.000000  celldm(5)=   0.000000  celldm(6)=   0.000000

     crystal axes: (cart. coord. in units of alat)
               a(1) = (   0.500000   0.500000   0.500000 )  
               a(2) = (  -0.500000   0.500000   0.500000 )  
               a(3) = (  -0.500000  -0.500000   0.500000 )  

     reciprocal axes: (cart. coord. in units 2 pi/alat)
               b(1) = (  1.000000  0.000000  1.000000 )  
               b(2) = ( -1.000000  1.000000  0.000000 )  
               b(3) = (  0.000000 -1.000000  1.000000 )  


     PseudoPot. # 1 for Li read from file:
     ./pseudopot/Li.pbe-mt_fhi.UPF
     MD5 check sum: 3419f5616d131090147e867976aae79b
     Pseudo is Norm-conserving + core correction, Zval =  1.0
     Generated using FHI98PP, converted with fhi2upf.x v.5.0.2
     Using radial grid of  433 points,  3 beta functions with: 
                l(1) =   0
                l(2) =   1
                l(3) =   3

     atomic species   valence    mass     pseudopotential
     Li                1.00     6.94000     Li( 1.00)

     48 Sym. Ops., with inversion, found



   Cartesian axes

     site n.     atom                  positions (alat units)
         1        Li     tau(   1) = (   0.0000000   0.0000000   0.0000000  )

     number of k points=    44  Methfessel-Paxton smearing, width (Ry)=  0.0100
                       cart. coord. in units 2pi/alat
        k(    1) = (   0.0000000   0.0000000   0.1000000), wk =   0.0120000
        k(    2) = (   0.0000000  -0.1000000   0.2000000), wk =   0.0480000
        k(    3) = (   0.0000000  -0.2000000   0.3000000), wk =   0.0480000
        k(    4) = (   0.0000000  -0.3000000   0.4000000), wk =   0.0480000
        k(    5) = (   0.0000000  -0.4000000   0.5000000), wk =   0.0480000
        k(    6) = (  -0.1000000   0.1000000   0.1000000), wk =   0.0160000
        k(    7) = (  -0.1000000  -0.1000000   0.3000000), wk =   0.0480000
        k(    8) = (  -0.1000000  -0.2000000   0.4000000), wk =   0.0960000
        k(    9) = (  -0.1000000  -0.3000000   0.5000000), wk =   0.0960000
        k(   10) = (  -0.1000000   0.6000000  -0.4000000), wk =   0.0480000
        k(   11) = (  -0.2000000   0.2000000   0.1000000), wk =   0.0480000
        k(   12) = (  -0.2000000  -0.2000000   0.5000000), wk =   0.0480000
        k(   13) = (  -0.2000000   0.7000000  -0.4000000), wk =   0.0960000
        k(   14) = (  -0.3000000   0.3000000   0.1000000), wk =   0.0480000
        k(   15) = (  -0.3000000   0.2000000   0.2000000), wk =   0.0480000
        k(   16) = (  -0.3000000   0.7000000  -0.3000000), wk =   0.0160000
        k(   17) = (  -0.4000000   0.4000000   0.1000000), wk =   0.0480000
        k(   18) = (  -0.4000000   0.3000000   0.2000000), wk =   0.0960000
        k(   19) = (   0.5000000  -0.5000000   0.1000000), wk =   0.0240000
        k(   20) = (   0.5000000  -0.6000000   0.2000000), wk =   0.0960000
        k(   21) = (   0.5000000  -0.7000000   0.3000000), wk =   0.0480000
        k(   22) = (   0.4000000  -0.6000000   0.3000000), wk =   0.0480000
        k(   23) = (   0.0000000   0.0000000   0.3000000), wk =   0.0120000
        k(   24) = (   0.0000000  -0.1000000   0.4000000), wk =   0.0480000
        k(   25) = (   0.0000000  -0.2000000   0.5000000), wk =   0.0480000
        k(   26) = (   0.0000000  -0.3000000   0.6000000), wk =   0.0480000
        k(   27) = (  -0.1000000  -0.1000000   0.5000000), wk =   0.0480000
        k(   28) = (  -0.1000000  -0.2000000   0.6000000), wk =   0.0960000
        k(   29) = (  -0.1000000   0.7000000  -0.3000000), wk =   0.0480000
        k(   30) = (  -0.2000000   0.8000000  -0.3000000), wk =   0.0480000
        k(   31) = (  -0.3000000   0.3000000   0.3000000), wk =   0.0160000
        k(   32) = (   0.6000000  -0.6000000   0.3000000), wk =   0.0480000
        k(   33) = (   0.5000000  -0.5000000   0.3000000), wk =   0.0240000
        k(   34) = (   0.5000000  -0.6000000   0.4000000), wk =   0.0480000
        k(   35) = (   0.0000000   0.0000000   0.5000000), wk =   0.0120000
        k(   36) = (   0.0000000  -0.1000000   0.6000000), wk =   0.0480000
        k(   37) = (   0.0000000  -0.2000000   0.7000000), wk =   0.0480000
        k(   38) = (  -0.1000000  -0.1000000   0.7000000), wk =   0.0480000
        k(   39) = (  -0.1000000   0.8000000  -0.2000000), wk =   0.0480000
        k(   40) = (   0.5000000  -0.5000000   0.5000000), wk =   0.0040000
        k(   41) = (   0.0000000   0.0000000   0.7000000), wk =   0.0120000
        k(   42) = (   0.0000000  -0.1000000   0.8000000), wk =   0.0480000
        k(   43) = (  -0.1000000   0.9000000  -0.1000000), wk =   0.0160000
        k(   44) = (   0.0000000   0.0000000   0.9000000), wk =   0.0120000

     Dense  grid:     1433 G-vectors     FFT dimensions: (  15,  15,  15)

     Estimated max dynamical RAM per process >       1.80 MB

     Initial potential from superposition of free atoms

     starting charge       0.9960, renormalised to       1.0000
     Starting wfcs are   16 randomized atomic wfcs

     total cpu time spent up to now is        0.1 secs

     Self-consistent Calculation

     iteration #  1     ecut=    20.00 Ry     beta= 0.70
     Davidson diagonalization with overlap
     ethr =  1.00E-02,  avg # of iterations =  4.4

     Threshold (ethr) on eigenvalues was too large:
     Diagonalizing with lowered threshold

     Davidson diagonalization with overlap
     ethr =  2.59E-05,  avg # of iterations =  3.9

     total cpu time spent up to now is        0.2 secs

     total energy              =      -0.68902766 Ry
     estimated scf accuracy    <       0.00026169 Ry

     iteration #  2     ecut=    20.00 Ry     beta= 0.70
     Davidson diagonalization with overlap
     ethr =  2.62E-05,  avg # of iterations =  1.0

     total cpu time spent up to now is        0.2 secs

     total energy              =      -0.68902408 Ry
     estimated scf accuracy    <       0.00002264 Ry

     iteration #  3     ecut=    20.00 Ry     beta= 0.70
     Davidson diagonalization with overlap
     ethr =  2.26E-06,  avg # of iterations =  1.2

     total cpu time spent up to now is        0.3 secs

     End of self-consistent calculation

          k = 0.0000 0.0000 0.1000 (   177 PWs)   bands (ev):

    -2.8381  16.6354  16.6354  16.9754  21.0888

          k = 0.0000-0.1000 0.2000 (   173 PWs)   bands (ev):

    -2.4305  14.1377  15.1230  16.3592  19.2491

          k = 0.0000-0.2000 0.3000 (   171 PWs)   bands (ev):

    -1.6171  10.6392  13.6542  15.4219  18.3923

          k = 0.0000-0.3000 0.4000 (   176 PWs)   bands (ev):

    -0.4310   7.4665  12.6136  14.6074  17.2747

          k = 0.0000-0.4000 0.5000 (   179 PWs)   bands (ev):

     0.8651   5.1475  12.0823  14.1627  16.7126

          k =-0.1000 0.1000 0.1000 (   177 PWs)   bands (ev):

    -2.6349  15.5479  15.8978  15.8978  20.3600

          k =-0.1000-0.1000 0.3000 (   172 PWs)   bands (ev):

    -1.8161  12.1309  12.8703  15.5759  18.2623

          k =-0.1000-0.2000 0.4000 (   175 PWs)   bands (ev):

    -0.7984   9.0038  11.4988  14.6849  18.2926

          k =-0.1000-0.3000 0.5000 (   174 PWs)   bands (ev):

     0.5427   6.2011  10.7376  14.0242  18.4082

          k =-0.1000 0.6000-0.4000 (   172 PWs)   bands (ev):

     1.5007   4.7422  10.4836  13.7896  18.3512

          k =-0.2000 0.2000 0.1000 (   173 PWs)   bands (ev):

    -2.0247  12.4230  14.2285  14.5162  19.8052

          k =-0.2000-0.2000 0.5000 (   175 PWs)   bands (ev):

     0.4211   7.0691   9.5480  14.1418  18.5460

          k =-0.2000 0.7000-0.4000 (   173 PWs)   bands (ev):

     1.8799   4.9664   8.7736  13.8127  19.1602

          k =-0.3000 0.3000 0.1000 (   177 PWs)   bands (ev):

    -1.0156   8.9851  13.1213  13.3195  18.9871

          k =-0.3000 0.2000 0.2000 (   175 PWs)   bands (ev):

    -1.2100  10.3749  11.6080  13.2487  20.8021

          k =-0.3000 0.7000-0.3000 (   167 PWs)   bands (ev):

     3.4615   3.4615   8.0327  13.7502  20.5671

          k =-0.4000 0.4000 0.1000 (   174 PWs)   bands (ev):

     0.3039   6.1404  12.4256  12.5586  18.3314

          k =-0.4000 0.3000 0.2000 (   174 PWs)   bands (ev):

    -0.0039   7.4726  10.3400  12.4904  20.9123

          k = 0.5000-0.5000 0.1000 (   174 PWs)   bands (ev):

     1.2212   4.7073  12.1886  12.2999  18.0956

          k = 0.5000-0.6000 0.2000 (   170 PWs)   bands (ev):

     1.3809   5.1119   9.7927  12.1001  20.7417

          k = 0.5000-0.7000 0.3000 (   173 PWs)   bands (ev):

     1.3947   5.7045   8.5084  12.0600  22.4183

          k = 0.4000-0.6000 0.3000 (   169 PWs)   bands (ev):

     2.6277   4.2310   8.0017  11.9144  22.5927

          k = 0.0000 0.0000 0.3000 (   177 PWs)   bands (ev):

    -2.0167  13.4635  13.4635  15.8742  16.5256

          k = 0.0000-0.1000 0.4000 (   171 PWs)   bands (ev):

    -1.1894  10.7439  11.9346  15.1696  16.0658

          k = 0.0000-0.2000 0.5000 (   175 PWs)   bands (ev):

     0.0249   7.6787  10.8683  14.4799  16.9652

          k = 0.0000-0.3000 0.6000 (   173 PWs)   bands (ev):

     1.3910   5.3263  10.3274  14.1114  18.1411

          k =-0.1000-0.1000 0.5000 (   171 PWs)   bands (ev):

    -0.1478   8.8972  10.1395  15.1237  15.2924

          k =-0.1000-0.2000 0.6000 (   178 PWs)   bands (ev):

     1.2512   6.4079   9.2057  14.6810  16.2746

          k =-0.1000 0.7000-0.3000 (   177 PWs)   bands (ev):

     2.3359   4.8878   8.9299  14.4911  17.2982

          k =-0.2000 0.8000-0.3000 (   175 PWs)   bands (ev):

     2.8055   4.8360   8.0699  15.3901  16.4313

          k =-0.3000 0.3000 0.3000 (   171 PWs)   bands (ev):

    -0.1905   9.0402   9.0402  11.8300  22.6426

          k = 0.6000-0.6000 0.3000 (   177 PWs)   bands (ev):

     1.2074   6.2689   8.2243  11.3063  23.8586

          k = 0.5000-0.5000 0.3000 (   172 PWs)   bands (ev):

     2.3487   4.6426   7.9507  11.1480  23.7386

          k = 0.5000-0.6000 0.4000 (   169 PWs)   bands (ev):

     2.7921   4.8755   6.6761  10.9522  25.9619

          k = 0.0000 0.0000 0.5000 (   168 PWs)   bands (ev):

    -0.3343  10.3818  10.3818  13.0994  15.2190

          k = 0.0000-0.1000 0.6000 (   174 PWs)   bands (ev):

     0.9305   8.1148   9.3053  12.8934  15.2625

          k = 0.0000-0.2000 0.7000 (   173 PWs)   bands (ev):

     2.4263   5.7675   8.7602  13.2452  16.1660

          k =-0.1000-0.1000 0.7000 (   177 PWs)   bands (ev):

     2.4010   6.6873   8.1633  12.9098  15.1593

          k =-0.1000 0.8000-0.2000 (   177 PWs)   bands (ev):

     3.7145   5.1986   7.7926  13.4950  15.3360

          k = 0.5000-0.5000 0.5000 (   180 PWs)   bands (ev):

     4.5979   4.5979   4.5979  10.6881  27.4665

          k = 0.0000 0.0000 0.7000 (   180 PWs)   bands (ev):

     2.2667   8.2242   8.2242  10.8145  14.7162

          k = 0.0000-0.1000 0.8000 (   176 PWs)   bands (ev):

     3.9221   6.5364   7.6775  11.2099  13.6823

          k =-0.1000 0.9000-0.1000 (   176 PWs)   bands (ev):

     5.5740   5.5740   7.2106  11.7908  11.7908

          k = 0.0000 0.0000 0.9000 (   176 PWs)   bands (ev):

     5.7228   7.1301   7.1301   9.6719  11.0112

     the Fermi energy is     0.9378 ev

!    total energy              =      -0.68902413 Ry
     estimated scf accuracy    <          2.0E-10 Ry
     smearing contrib. (-TS)   =      -0.00006941 Ry
     internal energy E=F+TS    =      -0.68895472 Ry

     The total energy is F=E-TS. E is the sum of the following terms:
     one-electron contribution =       0.46899324 Ry
     hartree contribution      =       0.00129994 Ry
     xc contribution           =      -0.56557194 Ry
     ewald contribution        =      -0.59367596 Ry

     convergence has been achieved in   3 iterations

     Forces acting on atoms (cartesian axes, Ry/au):

     atom    1 type  1   force =     0.00000000    0.00000000    0.00000000

     Total force =     0.000000     Total SCF correction =     0.000000


     Computing stress (Cartesian axis) and pressure

          total   stress  (Ry/bohr**3)                   (kbar)     P=       15.21
   0.00010340  -0.00000000   0.00000000           15.21       -0.00        0.00
  -0.00000000   0.00010340  -0.00000000           -0.00       15.21       -0.00
   0.00000000  -0.00000000   0.00010340            0.00       -0.00       15.21


     Writing all to output data dir ./QE-outdir/li.save/ :
     XML data file, charge density, pseudopotentials, collected wavefunctions

     init_run     :      0.04s CPU      0.05s WALL (       1 calls)
     electrons    :      0.12s CPU      0.21s WALL (       1 calls)
     forces       :      0.00s CPU      0.00s WALL (       1 calls)
     stress       :      0.02s CPU      0.02s WALL (       1 calls)

     Called by init_run:
     wfcinit      :      0.03s CPU      0.04s WALL (       1 calls)
     potinit      :      0.00s CPU      0.00s WALL (       1 calls)
     hinit0       :      0.01s CPU      0.01s WALL (       1 calls)

     Called by electrons:
     c_bands      :      0.11s CPU      0.20s WALL (       4 calls)
     sum_band     :      0.01s CPU      0.01s WALL (       4 calls)
     v_of_rho     :      0.00s CPU      0.00s WALL (       4 calls)
     mix_rho      :      0.00s CPU      0.00s WALL (       4 calls)

     Called by c_bands:
     init_us_2    :      0.01s CPU      0.01s WALL (     484 calls)
     cegterg      :      0.10s CPU      0.19s WALL (     176 calls)

     Called by *egterg:
     cdiaghg      :      0.07s CPU      0.16s WALL (     596 calls)
     h_psi        :      0.05s CPU      0.05s WALL (     684 calls)
     g_psi        :      0.00s CPU      0.00s WALL (     464 calls)

     Called by h_psi:
     h_psi:calbec :      0.00s CPU      0.00s WALL (     684 calls)
     vloc_psi     :      0.05s CPU      0.05s WALL (     684 calls)
                                        0.00s GPU  (     684 calls)
     add_vuspsi   :      0.00s CPU      0.00s WALL (     684 calls)

     General routines
     calbec       :      0.01s CPU      0.01s WALL (    1432 calls)
     fft          :      0.00s CPU      0.00s WALL (      20 calls)
     ffts         :      0.00s CPU      0.00s WALL (       4 calls)
     fftw         :      0.04s CPU      0.04s WALL (    7170 calls)

     Parallel routines

     PWSCF        :      0.19s CPU      0.30s WALL


   This run was terminated on:  23:30:49  31Jan2026            

=------------------------------------------------------------------------------=
   JOB DONE.
=------------------------------------------------------------------------------=
