
     Program PWSCF v.7.5 starts on 26Jan2026 at 14: 5:34 

     This program is part of the open-source Quantum ESPRESSO suite
     for quantum simulation of materials; please cite
         "P. Giannozzi et al., J. Phys.:Condens. Matter 21 395502 (2009);
         "P. Giannozzi et al., J. Phys.:Condens. Matter 29 465901 (2017);
         "P. Giannozzi et al., J. Chem. Phys. 152 154105 (2020);
          URL http://www.quantum-espresso.org", 
     in publications or presentations arising from this work. More details at
     http://www.quantum-espresso.org/quote

     Parallel version (MPI), running on     1 processors

     MPI processes distributed on     1 nodes
     0 MiB available memory on the printing compute node when the environment starts

     Waiting for input...
     Reading input from standard input
     Message from routine read_cards :
     DEPRECATED: no units specified in ATOMIC_POSITIONS card
     Message from routine read_cards :
     ATOMIC_POSITIONS: units set to alat

     Current dimensions of program PWSCF are:
     Max number of different atomic species (ntypx) = 10
     Max number of k-points (npk) =  40000
     Max angular momentum in pseudopotentials (lmaxx) =  4
     file Li.pbe-mt_fhi.UPF: wavefunction(s)  2p 4f renormalized

     IMPORTANT: XC functional enforced from input :
     Exchange-correlation= PZ
                           (   1   1   0   0   0   0   0)
     Any further DFT definition will be discarded
     Please, verify this is what you really want


     Subspace diagonalization in iterative solution of the eigenvalue problem:
     a serial algorithm will be used


     G-vector sticks info
     --------------------
     sticks:   dense  smooth     PW     G-vecs:    dense   smooth      PW
     Sum         173     173     63                 1505     1505     321

     Using Slab Decomposition



     bravais-lattice index     =            3
     lattice parameter (alat)  =       6.3000  a.u.
     unit-cell volume          =     125.0235 (a.u.)^3
     number of atoms/cell      =            1
     number of atomic types    =            1
     number of electrons       =         1.00
     number of Kohn-Sham states=            5
     kinetic-energy cutoff     =      20.0000  Ry
     charge density cutoff     =      80.0000  Ry
     scf convergence threshold =      1.0E-08
     mixing beta               =       0.7000
     number of iterations used =            8  plain     mixing
     Exchange-correlation= PZ
                           (   1   1   0   0   0   0   0)

     celldm(1)=   6.300000  celldm(2)=   0.000000  celldm(3)=   0.000000
     celldm(4)=   0.000000  celldm(5)=   0.000000  celldm(6)=   0.000000

     crystal axes: (cart. coord. in units of alat)
               a(1) = (   0.500000   0.500000   0.500000 )  
               a(2) = (  -0.500000   0.500000   0.500000 )  
               a(3) = (  -0.500000  -0.500000   0.500000 )  

     reciprocal axes: (cart. coord. in units 2 pi/alat)
               b(1) = (  1.000000  0.000000  1.000000 )  
               b(2) = ( -1.000000  1.000000  0.000000 )  
               b(3) = (  0.000000 -1.000000  1.000000 )  


     PseudoPot. # 1 for Li read from file:
     ./pseudopot/Li.pbe-mt_fhi.UPF
     MD5 check sum: 3419f5616d131090147e867976aae79b
     Pseudo is Norm-conserving + core correction, Zval =  1.0
     Generated using FHI98PP, converted with fhi2upf.x v.5.0.2
     Using radial grid of  433 points,  3 beta functions with: 
                l(1) =   0
                l(2) =   1
                l(3) =   3

     atomic species   valence    mass     pseudopotential
     Li                1.00     6.94000     Li( 1.00)

     48 Sym. Ops., with inversion, found



   Cartesian axes

     site n.     atom                  positions (alat units)
         1        Li     tau(   1) = (   0.0000000   0.0000000   0.0000000  )

     number of k points=    44  Methfessel-Paxton smearing, width (Ry)=  0.0100
                       cart. coord. in units 2pi/alat
        k(    1) = (   0.0000000   0.0000000   0.1000000), wk =   0.0120000
        k(    2) = (   0.0000000  -0.1000000   0.2000000), wk =   0.0480000
        k(    3) = (   0.0000000  -0.2000000   0.3000000), wk =   0.0480000
        k(    4) = (   0.0000000  -0.3000000   0.4000000), wk =   0.0480000
        k(    5) = (   0.0000000  -0.4000000   0.5000000), wk =   0.0480000
        k(    6) = (  -0.1000000   0.1000000   0.1000000), wk =   0.0160000
        k(    7) = (  -0.1000000  -0.1000000   0.3000000), wk =   0.0480000
        k(    8) = (  -0.1000000  -0.2000000   0.4000000), wk =   0.0960000
        k(    9) = (  -0.1000000  -0.3000000   0.5000000), wk =   0.0960000
        k(   10) = (  -0.1000000   0.6000000  -0.4000000), wk =   0.0480000
        k(   11) = (  -0.2000000   0.2000000   0.1000000), wk =   0.0480000
        k(   12) = (  -0.2000000  -0.2000000   0.5000000), wk =   0.0480000
        k(   13) = (  -0.2000000   0.7000000  -0.4000000), wk =   0.0960000
        k(   14) = (  -0.3000000   0.3000000   0.1000000), wk =   0.0480000
        k(   15) = (  -0.3000000   0.2000000   0.2000000), wk =   0.0480000
        k(   16) = (  -0.3000000   0.7000000  -0.3000000), wk =   0.0160000
        k(   17) = (  -0.4000000   0.4000000   0.1000000), wk =   0.0480000
        k(   18) = (  -0.4000000   0.3000000   0.2000000), wk =   0.0960000
        k(   19) = (   0.5000000  -0.5000000   0.1000000), wk =   0.0240000
        k(   20) = (   0.5000000  -0.6000000   0.2000000), wk =   0.0960000
        k(   21) = (   0.5000000  -0.7000000   0.3000000), wk =   0.0480000
        k(   22) = (   0.4000000  -0.6000000   0.3000000), wk =   0.0480000
        k(   23) = (   0.0000000   0.0000000   0.3000000), wk =   0.0120000
        k(   24) = (   0.0000000  -0.1000000   0.4000000), wk =   0.0480000
        k(   25) = (   0.0000000  -0.2000000   0.5000000), wk =   0.0480000
        k(   26) = (   0.0000000  -0.3000000   0.6000000), wk =   0.0480000
        k(   27) = (  -0.1000000  -0.1000000   0.5000000), wk =   0.0480000
        k(   28) = (  -0.1000000  -0.2000000   0.6000000), wk =   0.0960000
        k(   29) = (  -0.1000000   0.7000000  -0.3000000), wk =   0.0480000
        k(   30) = (  -0.2000000   0.8000000  -0.3000000), wk =   0.0480000
        k(   31) = (  -0.3000000   0.3000000   0.3000000), wk =   0.0160000
        k(   32) = (   0.6000000  -0.6000000   0.3000000), wk =   0.0480000
        k(   33) = (   0.5000000  -0.5000000   0.3000000), wk =   0.0240000
        k(   34) = (   0.5000000  -0.6000000   0.4000000), wk =   0.0480000
        k(   35) = (   0.0000000   0.0000000   0.5000000), wk =   0.0120000
        k(   36) = (   0.0000000  -0.1000000   0.6000000), wk =   0.0480000
        k(   37) = (   0.0000000  -0.2000000   0.7000000), wk =   0.0480000
        k(   38) = (  -0.1000000  -0.1000000   0.7000000), wk =   0.0480000
        k(   39) = (  -0.1000000   0.8000000  -0.2000000), wk =   0.0480000
        k(   40) = (   0.5000000  -0.5000000   0.5000000), wk =   0.0040000
        k(   41) = (   0.0000000   0.0000000   0.7000000), wk =   0.0120000
        k(   42) = (   0.0000000  -0.1000000   0.8000000), wk =   0.0480000
        k(   43) = (  -0.1000000   0.9000000  -0.1000000), wk =   0.0160000
        k(   44) = (   0.0000000   0.0000000   0.9000000), wk =   0.0120000

     Dense  grid:     1505 G-vectors     FFT dimensions: (  15,  15,  15)

     Estimated max dynamical RAM per process >       1.89 MB

     Initial potential from superposition of free atoms

     starting charge       0.9960, renormalised to       1.0000
     Starting wfcs are   16 randomized atomic wfcs

     total cpu time spent up to now is        0.1 secs

     Self-consistent Calculation

     iteration #  1     ecut=    20.00 Ry     beta= 0.70
     Davidson diagonalization with overlap
     ethr =  1.00E-02,  avg # of iterations =  4.4

     Threshold (ethr) on eigenvalues was too large:
     Diagonalizing with lowered threshold

     Davidson diagonalization with overlap
     ethr =  2.15E-05,  avg # of iterations =  3.6

     total cpu time spent up to now is        0.2 secs

     total energy              =      -0.68954658 Ry
     estimated scf accuracy    <       0.00021473 Ry

     iteration #  2     ecut=    20.00 Ry     beta= 0.70
     Davidson diagonalization with overlap
     ethr =  2.15E-05,  avg # of iterations =  1.0

     total cpu time spent up to now is        0.2 secs

     total energy              =      -0.68954375 Ry
     estimated scf accuracy    <       0.00001862 Ry

     iteration #  3     ecut=    20.00 Ry     beta= 0.70
     Davidson diagonalization with overlap
     ethr =  1.86E-06,  avg # of iterations =  1.4

     total cpu time spent up to now is        0.3 secs

     End of self-consistent calculation

          k = 0.0000 0.0000 0.1000 (   193 PWs)   bands (ev):

    -2.9746  15.5113  15.5113  15.8203  19.8365

          k = 0.0000-0.1000 0.2000 (   190 PWs)   bands (ev):

    -2.5779  13.1714  14.0983  15.2502  18.0647

          k = 0.0000-0.2000 0.3000 (   188 PWs)   bands (ev):

    -1.7864   9.8626  12.7156  14.3821  17.2629

          k = 0.0000-0.3000 0.4000 (   188 PWs)   bands (ev):

    -0.6314   6.8400  11.7351  13.6213  16.2053

          k = 0.0000-0.4000 0.5000 (   185 PWs)   bands (ev):

     0.6447   4.6016  11.2349  13.2050  15.6736

          k =-0.1000 0.1000 0.1000 (   189 PWs)   bands (ev):

    -2.7767  14.4748  14.8372  14.8372  19.1061

          k =-0.1000-0.1000 0.3000 (   186 PWs)   bands (ev):

    -1.9805  11.3052  11.9495  14.5204  17.1314

          k =-0.1000-0.2000 0.4000 (   186 PWs)   bands (ev):

    -0.9919   8.3303  10.6564  13.6922  17.1460

          k =-0.1000-0.3000 0.5000 (   187 PWs)   bands (ev):

     0.3144   5.6465   9.9373  13.0741  17.2316

          k =-0.1000 0.6000-0.4000 (   191 PWs)   bands (ev):

     1.2628   4.2258   9.6971  12.8545  17.1727

          k =-0.2000 0.2000 0.1000 (   192 PWs)   bands (ev):

    -2.1827  11.5598  13.2316  13.5526  18.5668

          k =-0.2000-0.2000 0.5000 (   185 PWs)   bands (ev):

     0.1895   6.5291   8.7557  13.1822  17.3969

          k =-0.2000 0.7000-0.4000 (   192 PWs)   bands (ev):

     1.6060   4.5160   8.0102  12.8712  17.9612

          k =-0.3000 0.3000 0.1000 (   185 PWs)   bands (ev):

    -1.2010   8.2969  12.1821  12.4314  17.8026

          k =-0.3000 0.2000 0.2000 (   186 PWs)   bands (ev):

    -1.3908   9.6530  10.7635  12.3042  19.4817

          k =-0.3000 0.7000-0.3000 (   191 PWs)   bands (ev):

     3.1175   3.1175   7.2668  12.8085  19.3100

          k =-0.4000 0.4000 0.1000 (   185 PWs)   bands (ev):

     0.0870   5.5739  11.5219  11.7157  17.1878

          k =-0.4000 0.3000 0.2000 (   187 PWs)   bands (ev):

    -0.2198   6.8868   9.5710  11.5703  19.5916

          k = 0.5000-0.5000 0.1000 (   188 PWs)   bands (ev):

     0.9986   4.1767  11.2972  11.4723  16.9662

          k = 0.5000-0.6000 0.2000 (   187 PWs)   bands (ev):

     1.1331   4.6139   9.0575  11.1933  19.4345

          k = 0.5000-0.7000 0.3000 (   187 PWs)   bands (ev):

     1.1324   5.2398   7.7938  11.1410  21.0436

          k = 0.4000-0.6000 0.3000 (   189 PWs)   bands (ev):

     2.3293   3.8280   7.3048  10.9956  21.1742

          k = 0.0000 0.0000 0.3000 (   189 PWs)   bands (ev):

    -2.1760  12.5449  12.5449  14.7538  15.5166

          k = 0.0000-0.1000 0.4000 (   188 PWs)   bands (ev):

    -1.3734   9.9758  11.1040  14.1217  15.0250

          k = 0.0000-0.2000 0.5000 (   189 PWs)   bands (ev):

    -0.1950   7.0596  10.0974  13.4592  15.8767

          k = 0.0000-0.3000 0.6000 (   188 PWs)   bands (ev):

     1.1420   4.7948   9.5869  13.1058  16.9806

          k =-0.1000-0.1000 0.5000 (   186 PWs)   bands (ev):

    -0.3656   8.2526   9.3708  14.1695  14.1968

          k =-0.1000-0.2000 0.6000 (   188 PWs)   bands (ev):

     0.9893   5.8771   8.4797  13.6611  15.2219

          k =-0.1000 0.7000-0.3000 (   193 PWs)   bands (ev):

     2.0528   4.4027   8.2181  13.4768  16.1897

          k =-0.2000 0.8000-0.3000 (   195 PWs)   bands (ev):

     2.4858   4.4170   7.3420  14.3165  15.4018

          k =-0.3000 0.3000 0.3000 (   186 PWs)   bands (ev):

    -0.4021   8.3936   8.3936  10.8598  21.2147

          k = 0.6000-0.6000 0.3000 (   184 PWs)   bands (ev):

     0.9511   5.7577   7.6233  10.3362  22.3657

          k = 0.5000-0.5000 0.3000 (   186 PWs)   bands (ev):

     2.0657   4.1880   7.3649  10.1778  22.2600

          k = 0.5000-0.6000 0.4000 (   190 PWs)   bands (ev):

     2.4748   4.4563   6.1386   9.9633  23.5334

          k = 0.0000 0.0000 0.5000 (   184 PWs)   bands (ev):

    -0.5484   9.6399   9.6399  12.2728  14.0737

          k = 0.0000-0.1000 0.6000 (   192 PWs)   bands (ev):

     0.6717   7.4940   8.6229  12.0496  14.1204

          k = 0.0000-0.2000 0.7000 (   196 PWs)   bands (ev):

     2.1215   5.2465   8.1083  12.3150  15.0458

          k =-0.1000-0.1000 0.7000 (   193 PWs)   bands (ev):

     2.0855   6.1641   7.5056  12.0761  14.0335

          k =-0.1000 0.8000-0.2000 (   198 PWs)   bands (ev):

     3.3560   4.7378   7.1431  12.5992  14.3668

          k = 0.5000-0.5000 0.5000 (   180 PWs)   bands (ev):

     4.1941   4.1941   4.1941   9.6720  25.7519

          k = 0.0000 0.0000 0.7000 (   196 PWs)   bands (ev):

     1.9505   7.6024   7.6024  10.1096  13.5947

          k = 0.0000-0.1000 0.8000 (   198 PWs)   bands (ev):

     3.5375   6.0013   7.0858  10.4626  12.7644

          k =-0.1000 0.9000-0.1000 (   197 PWs)   bands (ev):

     5.1112   5.1112   6.6147  11.0173  11.0174

          k = 0.0000 0.0000 0.9000 (   188 PWs)   bands (ev):

     5.2439   6.5686   6.5686   9.0279  10.2772

     the Fermi energy is     0.6955 ev

!    total energy              =      -0.68954380 Ry
     estimated scf accuracy    <          1.7E-10 Ry
     smearing contrib. (-TS)   =      -0.00007833 Ry
     internal energy E=F+TS    =      -0.68946547 Ry

     The total energy is F=E-TS. E is the sum of the following terms:
     one-electron contribution =       0.44133601 Ry
     hartree contribution      =       0.00115094 Ry
     xc contribution           =      -0.55429629 Ry
     ewald contribution        =      -0.57765614 Ry

     convergence has been achieved in   3 iterations

     Forces acting on atoms (cartesian axes, Ry/au):

     atom    1 type  1   force =     0.00000000    0.00000000    0.00000000

     Total force =     0.000000     Total SCF correction =     0.000000


     Computing stress (Cartesian axis) and pressure

          total   stress  (Ry/bohr**3)                   (kbar)     P=        0.70
   0.00000479   0.00000000  -0.00000000            0.70        0.00       -0.00
   0.00000000   0.00000479   0.00000000            0.00        0.70        0.00
  -0.00000000   0.00000000   0.00000479           -0.00        0.00        0.70


     Writing all to output data dir ./QE-outdir/li.save/ :
     XML data file, charge density, pseudopotentials, collected wavefunctions

     init_run     :      0.04s CPU      0.05s WALL (       1 calls)
     electrons    :      0.12s CPU      0.21s WALL (       1 calls)
     forces       :      0.00s CPU      0.00s WALL (       1 calls)
     stress       :      0.02s CPU      0.02s WALL (       1 calls)

     Called by init_run:
     wfcinit      :      0.03s CPU      0.04s WALL (       1 calls)
     potinit      :      0.00s CPU      0.00s WALL (       1 calls)
     hinit0       :      0.01s CPU      0.01s WALL (       1 calls)

     Called by electrons:
     c_bands      :      0.11s CPU      0.20s WALL (       4 calls)
     sum_band     :      0.01s CPU      0.01s WALL (       4 calls)
     v_of_rho     :      0.00s CPU      0.00s WALL (       4 calls)
     mix_rho      :      0.00s CPU      0.00s WALL (       4 calls)

     Called by c_bands:
     init_us_2    :      0.01s CPU      0.01s WALL (     484 calls)
     cegterg      :      0.11s CPU      0.19s WALL (     176 calls)

     Called by *egterg:
     cdiaghg      :      0.07s CPU      0.16s WALL (     590 calls)
     h_psi        :      0.05s CPU      0.06s WALL (     678 calls)
     g_psi        :      0.00s CPU      0.00s WALL (     458 calls)

     Called by h_psi:
     h_psi:calbec :      0.00s CPU      0.00s WALL (     678 calls)
     vloc_psi     :      0.05s CPU      0.05s WALL (     678 calls)
                                        0.00s GPU  (     678 calls)
     add_vuspsi   :      0.00s CPU      0.00s WALL (     678 calls)

     General routines
     calbec       :      0.01s CPU      0.01s WALL (    1426 calls)
     fft          :      0.00s CPU      0.00s WALL (      20 calls)
     ffts         :      0.00s CPU      0.00s WALL (       4 calls)
     fftw         :      0.04s CPU      0.04s WALL (    7208 calls)

     Parallel routines

     PWSCF        :      0.19s CPU      0.30s WALL


   This run was terminated on:  14: 5:35  26Jan2026            

=------------------------------------------------------------------------------=
   JOB DONE.
=------------------------------------------------------------------------------=
