
     Program PWSCF v.7.5 starts on 31Jan2026 at 23:30:49 

     This program is part of the open-source Quantum ESPRESSO suite
     for quantum simulation of materials; please cite
         "P. Giannozzi et al., J. Phys.:Condens. Matter 21 395502 (2009);
         "P. Giannozzi et al., J. Phys.:Condens. Matter 29 465901 (2017);
         "P. Giannozzi et al., J. Chem. Phys. 152 154105 (2020);
          URL http://www.quantum-espresso.org", 
     in publications or presentations arising from this work. More details at
     http://www.quantum-espresso.org/quote

     Parallel version (MPI), running on     1 processors

     MPI processes distributed on     1 nodes
     0 MiB available memory on the printing compute node when the environment starts

     Waiting for input...
     Reading input from standard input
     Message from routine read_cards :
     DEPRECATED: no units specified in ATOMIC_POSITIONS card
     Message from routine read_cards :
     ATOMIC_POSITIONS: units set to alat

     Current dimensions of program PWSCF are:
     Max number of different atomic species (ntypx) = 10
     Max number of k-points (npk) =  40000
     Max angular momentum in pseudopotentials (lmaxx) =  4
     file Li.pbe-mt_fhi.UPF: wavefunction(s)  2p 4f renormalized

     IMPORTANT: XC functional enforced from input :
     Exchange-correlation= PZ
                           (   1   1   0   0   0   0   0)
     Any further DFT definition will be discarded
     Please, verify this is what you really want


     Subspace diagonalization in iterative solution of the eigenvalue problem:
     a serial algorithm will be used


     G-vector sticks info
     --------------------
     sticks:   dense  smooth     PW     G-vecs:    dense   smooth      PW
     Sum         173     173     63                 1433     1433     321

     Using Slab Decomposition



     bravais-lattice index     =            3
     lattice parameter (alat)  =       6.1400  a.u.
     unit-cell volume          =     115.7378 (a.u.)^3
     number of atoms/cell      =            1
     number of atomic types    =            1
     number of electrons       =         1.00
     number of Kohn-Sham states=            5
     kinetic-energy cutoff     =      20.0000  Ry
     charge density cutoff     =      80.0000  Ry
     scf convergence threshold =      1.0E-08
     mixing beta               =       0.7000
     number of iterations used =            8  plain     mixing
     Exchange-correlation= PZ
                           (   1   1   0   0   0   0   0)

     celldm(1)=   6.140000  celldm(2)=   0.000000  celldm(3)=   0.000000
     celldm(4)=   0.000000  celldm(5)=   0.000000  celldm(6)=   0.000000

     crystal axes: (cart. coord. in units of alat)
               a(1) = (   0.500000   0.500000   0.500000 )  
               a(2) = (  -0.500000   0.500000   0.500000 )  
               a(3) = (  -0.500000  -0.500000   0.500000 )  

     reciprocal axes: (cart. coord. in units 2 pi/alat)
               b(1) = (  1.000000  0.000000  1.000000 )  
               b(2) = ( -1.000000  1.000000  0.000000 )  
               b(3) = (  0.000000 -1.000000  1.000000 )  


     PseudoPot. # 1 for Li read from file:
     ./pseudopot/Li.pbe-mt_fhi.UPF
     MD5 check sum: 3419f5616d131090147e867976aae79b
     Pseudo is Norm-conserving + core correction, Zval =  1.0
     Generated using FHI98PP, converted with fhi2upf.x v.5.0.2
     Using radial grid of  433 points,  3 beta functions with: 
                l(1) =   0
                l(2) =   1
                l(3) =   3

     atomic species   valence    mass     pseudopotential
     Li                1.00     6.94000     Li( 1.00)

     48 Sym. Ops., with inversion, found



   Cartesian axes

     site n.     atom                  positions (alat units)
         1        Li     tau(   1) = (   0.0000000   0.0000000   0.0000000  )

     number of k points=    44  Methfessel-Paxton smearing, width (Ry)=  0.0100
                       cart. coord. in units 2pi/alat
        k(    1) = (   0.0000000   0.0000000   0.1000000), wk =   0.0120000
        k(    2) = (   0.0000000  -0.1000000   0.2000000), wk =   0.0480000
        k(    3) = (   0.0000000  -0.2000000   0.3000000), wk =   0.0480000
        k(    4) = (   0.0000000  -0.3000000   0.4000000), wk =   0.0480000
        k(    5) = (   0.0000000  -0.4000000   0.5000000), wk =   0.0480000
        k(    6) = (  -0.1000000   0.1000000   0.1000000), wk =   0.0160000
        k(    7) = (  -0.1000000  -0.1000000   0.3000000), wk =   0.0480000
        k(    8) = (  -0.1000000  -0.2000000   0.4000000), wk =   0.0960000
        k(    9) = (  -0.1000000  -0.3000000   0.5000000), wk =   0.0960000
        k(   10) = (  -0.1000000   0.6000000  -0.4000000), wk =   0.0480000
        k(   11) = (  -0.2000000   0.2000000   0.1000000), wk =   0.0480000
        k(   12) = (  -0.2000000  -0.2000000   0.5000000), wk =   0.0480000
        k(   13) = (  -0.2000000   0.7000000  -0.4000000), wk =   0.0960000
        k(   14) = (  -0.3000000   0.3000000   0.1000000), wk =   0.0480000
        k(   15) = (  -0.3000000   0.2000000   0.2000000), wk =   0.0480000
        k(   16) = (  -0.3000000   0.7000000  -0.3000000), wk =   0.0160000
        k(   17) = (  -0.4000000   0.4000000   0.1000000), wk =   0.0480000
        k(   18) = (  -0.4000000   0.3000000   0.2000000), wk =   0.0960000
        k(   19) = (   0.5000000  -0.5000000   0.1000000), wk =   0.0240000
        k(   20) = (   0.5000000  -0.6000000   0.2000000), wk =   0.0960000
        k(   21) = (   0.5000000  -0.7000000   0.3000000), wk =   0.0480000
        k(   22) = (   0.4000000  -0.6000000   0.3000000), wk =   0.0480000
        k(   23) = (   0.0000000   0.0000000   0.3000000), wk =   0.0120000
        k(   24) = (   0.0000000  -0.1000000   0.4000000), wk =   0.0480000
        k(   25) = (   0.0000000  -0.2000000   0.5000000), wk =   0.0480000
        k(   26) = (   0.0000000  -0.3000000   0.6000000), wk =   0.0480000
        k(   27) = (  -0.1000000  -0.1000000   0.5000000), wk =   0.0480000
        k(   28) = (  -0.1000000  -0.2000000   0.6000000), wk =   0.0960000
        k(   29) = (  -0.1000000   0.7000000  -0.3000000), wk =   0.0480000
        k(   30) = (  -0.2000000   0.8000000  -0.3000000), wk =   0.0480000
        k(   31) = (  -0.3000000   0.3000000   0.3000000), wk =   0.0160000
        k(   32) = (   0.6000000  -0.6000000   0.3000000), wk =   0.0480000
        k(   33) = (   0.5000000  -0.5000000   0.3000000), wk =   0.0240000
        k(   34) = (   0.5000000  -0.6000000   0.4000000), wk =   0.0480000
        k(   35) = (   0.0000000   0.0000000   0.5000000), wk =   0.0120000
        k(   36) = (   0.0000000  -0.1000000   0.6000000), wk =   0.0480000
        k(   37) = (   0.0000000  -0.2000000   0.7000000), wk =   0.0480000
        k(   38) = (  -0.1000000  -0.1000000   0.7000000), wk =   0.0480000
        k(   39) = (  -0.1000000   0.8000000  -0.2000000), wk =   0.0480000
        k(   40) = (   0.5000000  -0.5000000   0.5000000), wk =   0.0040000
        k(   41) = (   0.0000000   0.0000000   0.7000000), wk =   0.0120000
        k(   42) = (   0.0000000  -0.1000000   0.8000000), wk =   0.0480000
        k(   43) = (  -0.1000000   0.9000000  -0.1000000), wk =   0.0160000
        k(   44) = (   0.0000000   0.0000000   0.9000000), wk =   0.0120000

     Dense  grid:     1433 G-vectors     FFT dimensions: (  15,  15,  15)

     Estimated max dynamical RAM per process >       1.80 MB

     Initial potential from superposition of free atoms

     starting charge       0.9960, renormalised to       1.0000
     Starting wfcs are   16 randomized atomic wfcs

     total cpu time spent up to now is        0.1 secs

     Self-consistent Calculation

     iteration #  1     ecut=    20.00 Ry     beta= 0.70
     Davidson diagonalization with overlap
     ethr =  1.00E-02,  avg # of iterations =  4.5

     Threshold (ethr) on eigenvalues was too large:
     Diagonalizing with lowered threshold

     Davidson diagonalization with overlap
     ethr =  2.56E-05,  avg # of iterations =  3.8

     total cpu time spent up to now is        0.2 secs

     total energy              =      -0.68908446 Ry
     estimated scf accuracy    <       0.00025861 Ry

     iteration #  2     ecut=    20.00 Ry     beta= 0.70
     Davidson diagonalization with overlap
     ethr =  2.59E-05,  avg # of iterations =  1.0

     total cpu time spent up to now is        0.2 secs

     total energy              =      -0.68908095 Ry
     estimated scf accuracy    <       0.00002235 Ry

     iteration #  3     ecut=    20.00 Ry     beta= 0.70
     Davidson diagonalization with overlap
     ethr =  2.24E-06,  avg # of iterations =  1.7

     total cpu time spent up to now is        0.3 secs

     End of self-consistent calculation

          k = 0.0000 0.0000 0.1000 (   177 PWs)   bands (ev):

    -2.8469  16.5668  16.5668  16.9049  21.0121

          k = 0.0000-0.1000 0.2000 (   173 PWs)   bands (ev):

    -2.4398  14.0786  15.0604  16.2915  19.1769

          k = 0.0000-0.2000 0.3000 (   171 PWs)   bands (ev):

    -1.6277  10.5917  13.5969  15.3583  18.3233

          k = 0.0000-0.3000 0.4000 (   178 PWs)   bands (ev):

    -0.4434   7.4280  12.5593  14.5471  17.2091

          k = 0.0000-0.4000 0.5000 (   179 PWs)   bands (ev):

     0.8516   5.1139  12.0305  14.1041  16.6491

          k =-0.1000 0.1000 0.1000 (   177 PWs)   bands (ev):

    -2.6440  15.4823  15.8330  15.8330  20.2831

          k =-0.1000-0.1000 0.3000 (   172 PWs)   bands (ev):

    -1.8265  12.0804  12.8140  15.5114  18.1931

          k =-0.1000-0.2000 0.4000 (   175 PWs)   bands (ev):

    -0.8104   8.9626  11.4472  14.6242  18.2225

          k =-0.1000-0.3000 0.5000 (   174 PWs)   bands (ev):

     0.5287   6.1671  10.6886  13.9661  18.3363

          k =-0.1000 0.6000-0.4000 (   172 PWs)   bands (ev):

     1.4861   4.7105  10.4355  13.7324  18.2792

          k =-0.2000 0.2000 0.1000 (   175 PWs)   bands (ev):

    -2.0347  12.3702  14.1675  14.4570  19.7292

          k =-0.2000-0.2000 0.5000 (   175 PWs)   bands (ev):

     0.4068   7.0360   9.4994  14.0831  18.4756

          k =-0.2000 0.7000-0.4000 (   175 PWs)   bands (ev):

     1.8630   4.9388   8.7267  13.7551  19.0869

          k =-0.3000 0.3000 0.1000 (   177 PWs)   bands (ev):

    -1.0272   8.9430  13.0638  13.2651  18.9146

          k =-0.3000 0.2000 0.2000 (   175 PWs)   bands (ev):

    -1.2213  10.3308  11.5564  13.1907  20.7214

          k =-0.3000 0.7000-0.3000 (   179 PWs)   bands (ev):

     3.4400   3.4400   7.9854  13.6918  20.4893

          k =-0.4000 0.4000 0.1000 (   174 PWs)   bands (ev):

     0.2905   6.1057  12.3703  12.5070  18.2615

          k =-0.4000 0.3000 0.2000 (   175 PWs)   bands (ev):

    -0.0172   7.4367  10.2929  12.4339  20.8315

          k = 0.5000-0.5000 0.1000 (   174 PWs)   bands (ev):

     1.2075   4.6746  12.1341  12.2493  18.0265

          k = 0.5000-0.6000 0.2000 (   173 PWs)   bands (ev):

     1.3656   5.0812   9.7477  12.0443  20.6616

          k = 0.5000-0.7000 0.3000 (   173 PWs)   bands (ev):

     1.3786   5.6761   8.4647  12.0035  22.3343

          k = 0.4000-0.6000 0.3000 (   169 PWs)   bands (ev):

     2.6095   4.2063   7.9591  11.8579  22.5056

          k = 0.0000 0.0000 0.3000 (   177 PWs)   bands (ev):

    -2.0268  13.4073  13.4073  15.8056  16.4639

          k = 0.0000-0.1000 0.4000 (   171 PWs)   bands (ev):

    -1.2009  10.6970  11.8838  15.1057  16.0019

          k = 0.0000-0.2000 0.5000 (   177 PWs)   bands (ev):

     0.0113   7.6406  10.8209  14.4175  16.8985

          k = 0.0000-0.3000 0.6000 (   175 PWs)   bands (ev):

     1.3757   5.2936  10.2818  14.0499  18.0701

          k =-0.1000-0.1000 0.5000 (   178 PWs)   bands (ev):

    -0.1613   8.8574  10.0917  15.0651  15.2244

          k =-0.1000-0.2000 0.6000 (   178 PWs)   bands (ev):

     1.2351   6.3754   9.1611  14.6187  16.2101

          k =-0.1000 0.7000-0.3000 (   177 PWs)   bands (ev):

     2.3186   4.8581   8.8863  14.4291  17.2304

          k =-0.2000 0.8000-0.3000 (   175 PWs)   bands (ev):

     2.7859   4.8104   8.0252  15.3245  16.3683

          k =-0.3000 0.3000 0.3000 (   177 PWs)   bands (ev):

    -0.2036   9.0003   9.0003  11.7702  22.5536

          k = 0.6000-0.6000 0.3000 (   177 PWs)   bands (ev):

     1.1916   6.2376   8.1875  11.2467  23.7672

          k = 0.5000-0.5000 0.3000 (   172 PWs)   bands (ev):

     2.3314   4.6148   7.9148  11.0884  23.6482

          k = 0.5000-0.6000 0.4000 (   169 PWs)   bands (ev):

     2.7727   4.8499   6.6432  10.8915  25.0169

          k = 0.0000 0.0000 0.5000 (   168 PWs)   bands (ev):

    -0.3476  10.3365  10.3365  13.0488  15.1490

          k = 0.0000-0.1000 0.6000 (   174 PWs)   bands (ev):

     0.9146   8.0768   9.2636  12.8419  15.1927

          k = 0.0000-0.2000 0.7000 (   173 PWs)   bands (ev):

     2.4076   5.7356   8.7203  13.1884  16.0975

          k =-0.1000-0.1000 0.7000 (   177 PWs)   bands (ev):

     2.3817   6.6552   8.1230  12.8587  15.0906

          k =-0.1000 0.8000-0.2000 (   181 PWs)   bands (ev):

     3.6925   5.1703   7.7525  13.4402  15.2767

          k = 0.5000-0.5000 0.5000 (   180 PWs)   bands (ev):

     4.5732   4.5732   4.5732  10.6256  27.3615

          k = 0.0000 0.0000 0.7000 (   180 PWs)   bands (ev):

     2.2473   8.1861   8.1861  10.7714  14.6478

          k = 0.0000-0.1000 0.8000 (   178 PWs)   bands (ev):

     3.8984   6.5036   7.6413  11.1641  13.6262

          k =-0.1000 0.9000-0.1000 (   176 PWs)   bands (ev):

     5.5457   5.5457   7.1742  11.7434  11.7434

          k = 0.0000 0.0000 0.9000 (   176 PWs)   bands (ev):

     5.6935   7.0957   7.0957   9.6325  10.9663

     the Fermi energy is     0.9228 ev

!    total energy              =      -0.68908100 Ry
     estimated scf accuracy    <          2.2E-10 Ry
     smearing contrib. (-TS)   =      -0.00007044 Ry
     internal energy E=F+TS    =      -0.68901056 Ry

     The total energy is F=E-TS. E is the sum of the following terms:
     one-electron contribution =       0.46729695 Ry
     hartree contribution      =       0.00129097 Ry
     xc contribution           =      -0.56488942 Ry
     ewald contribution        =      -0.59270906 Ry

     convergence has been achieved in   3 iterations

     Forces acting on atoms (cartesian axes, Ry/au):

     atom    1 type  1   force =     0.00000000    0.00000000    0.00000000

     Total force =     0.000000     Total SCF correction =     0.000000


     Computing stress (Cartesian axis) and pressure

          total   stress  (Ry/bohr**3)                   (kbar)     P=       14.23
   0.00009676   0.00000000  -0.00000000           14.23        0.00       -0.00
   0.00000000   0.00009676   0.00000000            0.00       14.23        0.00
  -0.00000000   0.00000000   0.00009676           -0.00        0.00       14.23


     Writing all to output data dir ./QE-outdir/li.save/ :
     XML data file, charge density, pseudopotentials, collected wavefunctions

     init_run     :      0.04s CPU      0.05s WALL (       1 calls)
     electrons    :      0.13s CPU      0.22s WALL (       1 calls)
     forces       :      0.00s CPU      0.00s WALL (       1 calls)
     stress       :      0.02s CPU      0.02s WALL (       1 calls)

     Called by init_run:
     wfcinit      :      0.03s CPU      0.04s WALL (       1 calls)
     potinit      :      0.00s CPU      0.00s WALL (       1 calls)
     hinit0       :      0.01s CPU      0.01s WALL (       1 calls)

     Called by electrons:
     c_bands      :      0.11s CPU      0.20s WALL (       4 calls)
     sum_band     :      0.01s CPU      0.01s WALL (       4 calls)
     v_of_rho     :      0.00s CPU      0.00s WALL (       4 calls)
     mix_rho      :      0.00s CPU      0.00s WALL (       4 calls)

     Called by c_bands:
     init_us_2    :      0.01s CPU      0.01s WALL (     484 calls)
     cegterg      :      0.11s CPU      0.20s WALL (     176 calls)

     Called by *egterg:
     cdiaghg      :      0.07s CPU      0.17s WALL (     611 calls)
     h_psi        :      0.05s CPU      0.05s WALL (     699 calls)
     g_psi        :      0.00s CPU      0.00s WALL (     479 calls)

     Called by h_psi:
     h_psi:calbec :      0.00s CPU      0.00s WALL (     699 calls)
     vloc_psi     :      0.05s CPU      0.05s WALL (     699 calls)
                                        0.00s GPU  (     699 calls)
     add_vuspsi   :      0.00s CPU      0.00s WALL (     699 calls)

     General routines
     calbec       :      0.01s CPU      0.01s WALL (    1447 calls)
     fft          :      0.00s CPU      0.00s WALL (      20 calls)
     ffts         :      0.00s CPU      0.00s WALL (       4 calls)
     fftw         :      0.04s CPU      0.04s WALL (    7204 calls)

     Parallel routines

     PWSCF        :      0.19s CPU      0.30s WALL


   This run was terminated on:  23:30:50  31Jan2026            

=------------------------------------------------------------------------------=
   JOB DONE.
=------------------------------------------------------------------------------=
