
     Program PWSCF v.7.5 starts on 26Jan2026 at 14: 5:35 

     This program is part of the open-source Quantum ESPRESSO suite
     for quantum simulation of materials; please cite
         "P. Giannozzi et al., J. Phys.:Condens. Matter 21 395502 (2009);
         "P. Giannozzi et al., J. Phys.:Condens. Matter 29 465901 (2017);
         "P. Giannozzi et al., J. Chem. Phys. 152 154105 (2020);
          URL http://www.quantum-espresso.org", 
     in publications or presentations arising from this work. More details at
     http://www.quantum-espresso.org/quote

     Parallel version (MPI), running on     1 processors

     MPI processes distributed on     1 nodes
     0 MiB available memory on the printing compute node when the environment starts

     Waiting for input...
     Reading input from standard input
     Message from routine read_cards :
     DEPRECATED: no units specified in ATOMIC_POSITIONS card
     Message from routine read_cards :
     ATOMIC_POSITIONS: units set to alat

     Current dimensions of program PWSCF are:
     Max number of different atomic species (ntypx) = 10
     Max number of k-points (npk) =  40000
     Max angular momentum in pseudopotentials (lmaxx) =  4
     file Li.pbe-mt_fhi.UPF: wavefunction(s)  2p 4f renormalized

     IMPORTANT: XC functional enforced from input :
     Exchange-correlation= PZ
                           (   1   1   0   0   0   0   0)
     Any further DFT definition will be discarded
     Please, verify this is what you really want


     Subspace diagonalization in iterative solution of the eigenvalue problem:
     a serial algorithm will be used


     G-vector sticks info
     --------------------
     sticks:   dense  smooth     PW     G-vecs:    dense   smooth      PW
     Sum         181     181     67                 1601     1601     369

     Using Slab Decomposition



     bravais-lattice index     =            3
     lattice parameter (alat)  =       6.4500  a.u.
     unit-cell volume          =     134.1681 (a.u.)^3
     number of atoms/cell      =            1
     number of atomic types    =            1
     number of electrons       =         1.00
     number of Kohn-Sham states=            5
     kinetic-energy cutoff     =      20.0000  Ry
     charge density cutoff     =      80.0000  Ry
     scf convergence threshold =      1.0E-08
     mixing beta               =       0.7000
     number of iterations used =            8  plain     mixing
     Exchange-correlation= PZ
                           (   1   1   0   0   0   0   0)

     celldm(1)=   6.450000  celldm(2)=   0.000000  celldm(3)=   0.000000
     celldm(4)=   0.000000  celldm(5)=   0.000000  celldm(6)=   0.000000

     crystal axes: (cart. coord. in units of alat)
               a(1) = (   0.500000   0.500000   0.500000 )  
               a(2) = (  -0.500000   0.500000   0.500000 )  
               a(3) = (  -0.500000  -0.500000   0.500000 )  

     reciprocal axes: (cart. coord. in units 2 pi/alat)
               b(1) = (  1.000000  0.000000  1.000000 )  
               b(2) = ( -1.000000  1.000000  0.000000 )  
               b(3) = (  0.000000 -1.000000  1.000000 )  


     PseudoPot. # 1 for Li read from file:
     ./pseudopot/Li.pbe-mt_fhi.UPF
     MD5 check sum: 3419f5616d131090147e867976aae79b
     Pseudo is Norm-conserving + core correction, Zval =  1.0
     Generated using FHI98PP, converted with fhi2upf.x v.5.0.2
     Using radial grid of  433 points,  3 beta functions with: 
                l(1) =   0
                l(2) =   1
                l(3) =   3

     atomic species   valence    mass     pseudopotential
     Li                1.00     6.94000     Li( 1.00)

     48 Sym. Ops., with inversion, found



   Cartesian axes

     site n.     atom                  positions (alat units)
         1        Li     tau(   1) = (   0.0000000   0.0000000   0.0000000  )

     number of k points=    44  Methfessel-Paxton smearing, width (Ry)=  0.0100
                       cart. coord. in units 2pi/alat
        k(    1) = (   0.0000000   0.0000000   0.1000000), wk =   0.0120000
        k(    2) = (   0.0000000  -0.1000000   0.2000000), wk =   0.0480000
        k(    3) = (   0.0000000  -0.2000000   0.3000000), wk =   0.0480000
        k(    4) = (   0.0000000  -0.3000000   0.4000000), wk =   0.0480000
        k(    5) = (   0.0000000  -0.4000000   0.5000000), wk =   0.0480000
        k(    6) = (  -0.1000000   0.1000000   0.1000000), wk =   0.0160000
        k(    7) = (  -0.1000000  -0.1000000   0.3000000), wk =   0.0480000
        k(    8) = (  -0.1000000  -0.2000000   0.4000000), wk =   0.0960000
        k(    9) = (  -0.1000000  -0.3000000   0.5000000), wk =   0.0960000
        k(   10) = (  -0.1000000   0.6000000  -0.4000000), wk =   0.0480000
        k(   11) = (  -0.2000000   0.2000000   0.1000000), wk =   0.0480000
        k(   12) = (  -0.2000000  -0.2000000   0.5000000), wk =   0.0480000
        k(   13) = (  -0.2000000   0.7000000  -0.4000000), wk =   0.0960000
        k(   14) = (  -0.3000000   0.3000000   0.1000000), wk =   0.0480000
        k(   15) = (  -0.3000000   0.2000000   0.2000000), wk =   0.0480000
        k(   16) = (  -0.3000000   0.7000000  -0.3000000), wk =   0.0160000
        k(   17) = (  -0.4000000   0.4000000   0.1000000), wk =   0.0480000
        k(   18) = (  -0.4000000   0.3000000   0.2000000), wk =   0.0960000
        k(   19) = (   0.5000000  -0.5000000   0.1000000), wk =   0.0240000
        k(   20) = (   0.5000000  -0.6000000   0.2000000), wk =   0.0960000
        k(   21) = (   0.5000000  -0.7000000   0.3000000), wk =   0.0480000
        k(   22) = (   0.4000000  -0.6000000   0.3000000), wk =   0.0480000
        k(   23) = (   0.0000000   0.0000000   0.3000000), wk =   0.0120000
        k(   24) = (   0.0000000  -0.1000000   0.4000000), wk =   0.0480000
        k(   25) = (   0.0000000  -0.2000000   0.5000000), wk =   0.0480000
        k(   26) = (   0.0000000  -0.3000000   0.6000000), wk =   0.0480000
        k(   27) = (  -0.1000000  -0.1000000   0.5000000), wk =   0.0480000
        k(   28) = (  -0.1000000  -0.2000000   0.6000000), wk =   0.0960000
        k(   29) = (  -0.1000000   0.7000000  -0.3000000), wk =   0.0480000
        k(   30) = (  -0.2000000   0.8000000  -0.3000000), wk =   0.0480000
        k(   31) = (  -0.3000000   0.3000000   0.3000000), wk =   0.0160000
        k(   32) = (   0.6000000  -0.6000000   0.3000000), wk =   0.0480000
        k(   33) = (   0.5000000  -0.5000000   0.3000000), wk =   0.0240000
        k(   34) = (   0.5000000  -0.6000000   0.4000000), wk =   0.0480000
        k(   35) = (   0.0000000   0.0000000   0.5000000), wk =   0.0120000
        k(   36) = (   0.0000000  -0.1000000   0.6000000), wk =   0.0480000
        k(   37) = (   0.0000000  -0.2000000   0.7000000), wk =   0.0480000
        k(   38) = (  -0.1000000  -0.1000000   0.7000000), wk =   0.0480000
        k(   39) = (  -0.1000000   0.8000000  -0.2000000), wk =   0.0480000
        k(   40) = (   0.5000000  -0.5000000   0.5000000), wk =   0.0040000
        k(   41) = (   0.0000000   0.0000000   0.7000000), wk =   0.0120000
        k(   42) = (   0.0000000  -0.1000000   0.8000000), wk =   0.0480000
        k(   43) = (  -0.1000000   0.9000000  -0.1000000), wk =   0.0160000
        k(   44) = (   0.0000000   0.0000000   0.9000000), wk =   0.0120000

     Dense  grid:     1601 G-vectors     FFT dimensions: (  15,  15,  15)

     Estimated max dynamical RAM per process >       1.98 MB

     Initial potential from superposition of free atoms

     starting charge       0.9960, renormalised to       1.0000
     Starting wfcs are   16 randomized atomic wfcs

     total cpu time spent up to now is        0.1 secs

     Self-consistent Calculation

     iteration #  1     ecut=    20.00 Ry     beta= 0.70
     Davidson diagonalization with overlap
     ethr =  1.00E-02,  avg # of iterations =  4.6

     Threshold (ethr) on eigenvalues was too large:
     Diagonalizing with lowered threshold

     Davidson diagonalization with overlap
     ethr =  1.85E-05,  avg # of iterations =  3.6

     total cpu time spent up to now is        0.2 secs

     total energy              =      -0.68928858 Ry
     estimated scf accuracy    <       0.00018404 Ry

     iteration #  2     ecut=    20.00 Ry     beta= 0.70
     Davidson diagonalization with overlap
     ethr =  1.84E-05,  avg # of iterations =  1.0

     total cpu time spent up to now is        0.2 secs

     total energy              =      -0.68928630 Ry
     estimated scf accuracy    <       0.00001599 Ry

     iteration #  3     ecut=    20.00 Ry     beta= 0.70
     Davidson diagonalization with overlap
     ethr =  1.60E-06,  avg # of iterations =  1.2

     total cpu time spent up to now is        0.3 secs

     End of self-consistent calculation

          k = 0.0000 0.0000 0.1000 (   201 PWs)   bands (ev):

    -3.0750  14.5965  14.5966  14.8800  18.8152

          k = 0.0000-0.1000 0.2000 (   202 PWs)   bands (ev):

    -2.6881  12.3829  13.2627  14.3478  17.0994

          k = 0.0000-0.2000 0.3000 (   199 PWs)   bands (ev):

    -1.9169   9.2308  11.9520  13.5342  16.3421

          k = 0.0000-0.3000 0.4000 (   197 PWs)   bands (ev):

    -0.7900   6.3323  11.0199  12.8173  15.3335

          k = 0.0000-0.4000 0.5000 (   199 PWs)   bands (ev):

     0.4665   4.1620  10.5435  12.4238  14.8264

          k =-0.1000 0.1000 0.1000 (   198 PWs)   bands (ev):

    -2.8819  13.6003  13.9723  13.9723  18.0843

          k =-0.1000-0.1000 0.3000 (   203 PWs)   bands (ev):

    -2.1064  10.6313  11.1997  13.6598  16.2090

          k =-0.1000-0.2000 0.4000 (   199 PWs)   bands (ev):

    -1.1439   7.7814   9.9713  12.8827  16.2103

          k =-0.1000-0.3000 0.5000 (   200 PWs)   bands (ev):

     0.1311   5.1970   9.2870  12.2999  16.2716

          k =-0.1000 0.6000-0.4000 (   199 PWs)   bands (ev):

     1.0707   3.8088   9.0583  12.0924  16.2110

          k =-0.2000 0.2000 0.1000 (   199 PWs)   bands (ev):

    -2.3028  10.8558  12.4221  12.7673  17.5583

          k =-0.2000-0.2000 0.5000 (   201 PWs)   bands (ev):

     0.0040   6.0894   8.1129  12.4000  16.4596

          k =-0.2000 0.7000-0.4000 (   204 PWs)   bands (ev):

     1.3846   4.1495   7.3933  12.1044  16.9823

          k =-0.3000 0.3000 0.1000 (   201 PWs)   bands (ev):

    -1.3461   7.7368  11.4170  11.7068  16.8364

          k =-0.3000 0.2000 0.2000 (   203 PWs)   bands (ev):

    -1.5316   9.0646  10.0728  11.5382  18.4044

          k =-0.3000 0.7000-0.3000 (   209 PWs)   bands (ev):

     2.8386   2.8386   6.6474  12.0408  18.2846

          k =-0.4000 0.4000 0.1000 (   199 PWs)   bands (ev):

    -0.0868   5.1156  10.7870  11.0281  16.2549

          k =-0.4000 0.3000 0.2000 (   196 PWs)   bands (ev):

    -0.3916   6.4098   8.9438  10.8258  18.5125

          k = 0.5000-0.5000 0.1000 (   198 PWs)   bands (ev):

     0.8188   3.7492  10.5728  10.7971  16.0450

          k = 0.5000-0.6000 0.2000 (   204 PWs)   bands (ev):

     0.9328   4.2101   8.4575  10.4595  18.3665

          k = 0.5000-0.7000 0.3000 (   201 PWs)   bands (ev):

     0.9209   4.8618   7.2107  10.3989  19.9218

          k = 0.4000-0.6000 0.3000 (   204 PWs)   bands (ev):

     2.0874   3.5001   6.7371  10.2536  20.0127

          k = 0.0000 0.0000 0.3000 (   205 PWs)   bands (ev):

    -2.2971  11.7957  11.7957  13.8385  14.6937

          k = 0.0000-0.1000 0.4000 (   201 PWs)   bands (ev):

    -1.5166   9.3503  10.4272  13.2616  14.1824

          k = 0.0000-0.2000 0.5000 (   198 PWs)   bands (ev):

    -0.3700   6.5565   9.4703  12.6271  14.9903

          k = 0.0000-0.3000 0.6000 (   208 PWs)   bands (ev):

     0.9407   4.3650   8.9835  12.2857  16.0329

          k =-0.1000-0.1000 0.5000 (   204 PWs)   bands (ev):

    -0.5384   7.7274   8.7455  13.3033  13.3917

          k =-0.1000-0.2000 0.6000 (   207 PWs)   bands (ev):

     0.7781   5.4450   7.8898  12.8267  14.3654

          k =-0.1000 0.7000-0.3000 (   210 PWs)   bands (ev):

     1.8236   4.0084   7.6405  12.6486  15.2857

          k =-0.2000 0.8000-0.3000 (   205 PWs)   bands (ev):

     2.2269   4.0766   6.7525  13.4412  14.5627

          k =-0.3000 0.3000 0.3000 (   198 PWs)   bands (ev):

    -0.5701   7.8670   7.8670  10.0750  20.0515

          k = 0.6000-0.6000 0.3000 (   198 PWs)   bands (ev):

     0.7445   5.3412   7.1340   9.5521  21.1457

          k = 0.5000-0.5000 0.3000 (   206 PWs)   bands (ev):

     1.8360   3.8183   6.8877   9.3946  21.0536

          k = 0.5000-0.6000 0.4000 (   204 PWs)   bands (ev):

     2.2178   4.1152   5.7000   9.1672  22.2447

          k = 0.0000 0.0000 0.5000 (   201 PWs)   bands (ev):

    -0.7174   9.0353   9.0353  11.5990  13.1410

          k = 0.0000-0.1000 0.6000 (   204 PWs)   bands (ev):

     0.4641   6.9888   8.0680  11.3604  13.1921

          k = 0.0000-0.2000 0.7000 (   208 PWs)   bands (ev):

     1.8749   4.8235   7.5775  11.5541  14.1361

          k =-0.1000-0.1000 0.7000 (   208 PWs)   bands (ev):

     1.8302   5.7380   6.9706  11.3966  13.1135

          k =-0.1000 0.8000-0.2000 (   208 PWs)   bands (ev):

     3.0651   4.3627   6.6162  11.8667  13.5767

          k = 0.5000-0.5000 0.5000 (   216 PWs)   bands (ev):

     3.8651   3.8651   3.8651   8.8514  24.3466

          k = 0.0000 0.0000 0.7000 (   212 PWs)   bands (ev):

     1.6951   7.0960   7.0960   9.5353  12.6756

          k = 0.0000-0.1000 0.8000 (   216 PWs)   bands (ev):

     3.2256   5.5660   6.6037   9.8534  12.0115

          k =-0.1000 0.9000-0.1000 (   212 PWs)   bands (ev):

     4.7347   4.7347   6.1303  10.3872  10.3872

          k = 0.0000 0.0000 0.9000 (   212 PWs)   bands (ev):

     4.8534   6.1112   6.1112   8.5034   9.6787

     the Fermi energy is     0.5028 ev

!    total energy              =      -0.68928635 Ry
     estimated scf accuracy    <          3.0E-10 Ry
     smearing contrib. (-TS)   =      -0.00007204 Ry
     internal energy E=F+TS    =      -0.68921431 Ry

     The total energy is F=E-TS. E is the sum of the following terms:
     one-electron contribution =       0.41887620 Ry
     hartree contribution      =       0.00102667 Ry
     xc contribution           =      -0.54489489 Ry
     ewald contribution        =      -0.56422228 Ry

     convergence has been achieved in   3 iterations

     Forces acting on atoms (cartesian axes, Ry/au):

     atom    1 type  1   force =     0.00000000    0.00000000    0.00000000

     Total force =     0.000000     Total SCF correction =     0.000000


     Computing stress (Cartesian axis) and pressure

          total   stress  (Ry/bohr**3)                   (kbar)     P=       -8.98
  -0.00006105   0.00000000  -0.00000000           -8.98        0.00       -0.00
   0.00000000  -0.00006105   0.00000000            0.00       -8.98        0.00
  -0.00000000   0.00000000  -0.00006105           -0.00        0.00       -8.98


     Writing all to output data dir ./QE-outdir/li.save/ :
     XML data file, charge density, pseudopotentials, collected wavefunctions

     init_run     :      0.04s CPU      0.06s WALL (       1 calls)
     electrons    :      0.13s CPU      0.21s WALL (       1 calls)
     forces       :      0.00s CPU      0.00s WALL (       1 calls)
     stress       :      0.02s CPU      0.02s WALL (       1 calls)

     Called by init_run:
     wfcinit      :      0.03s CPU      0.04s WALL (       1 calls)
     potinit      :      0.00s CPU      0.00s WALL (       1 calls)
     hinit0       :      0.01s CPU      0.01s WALL (       1 calls)

     Called by electrons:
     c_bands      :      0.12s CPU      0.20s WALL (       4 calls)
     sum_band     :      0.01s CPU      0.01s WALL (       4 calls)
     v_of_rho     :      0.00s CPU      0.00s WALL (       4 calls)
     mix_rho      :      0.00s CPU      0.00s WALL (       4 calls)

     Called by c_bands:
     init_us_2    :      0.01s CPU      0.01s WALL (     484 calls)
     cegterg      :      0.11s CPU      0.19s WALL (     176 calls)

     Called by *egterg:
     cdiaghg      :      0.07s CPU      0.16s WALL (     590 calls)
     h_psi        :      0.05s CPU      0.06s WALL (     678 calls)
     g_psi        :      0.00s CPU      0.00s WALL (     458 calls)

     Called by h_psi:
     h_psi:calbec :      0.00s CPU      0.00s WALL (     678 calls)
     vloc_psi     :      0.05s CPU      0.05s WALL (     678 calls)
                                        0.00s GPU  (     678 calls)
     add_vuspsi   :      0.00s CPU      0.00s WALL (     678 calls)

     General routines
     calbec       :      0.01s CPU      0.01s WALL (    1426 calls)
     fft          :      0.00s CPU      0.00s WALL (      20 calls)
     ffts         :      0.00s CPU      0.00s WALL (       4 calls)
     fftw         :      0.04s CPU      0.05s WALL (    7262 calls)

     Parallel routines

     PWSCF        :      0.20s CPU      0.31s WALL


   This run was terminated on:  14: 5:36  26Jan2026            

=------------------------------------------------------------------------------=
   JOB DONE.
=------------------------------------------------------------------------------=
