
     Program PWSCF v.7.5 starts on 26Jan2026 at 14: 5:40 

     This program is part of the open-source Quantum ESPRESSO suite
     for quantum simulation of materials; please cite
         "P. Giannozzi et al., J. Phys.:Condens. Matter 21 395502 (2009);
         "P. Giannozzi et al., J. Phys.:Condens. Matter 29 465901 (2017);
         "P. Giannozzi et al., J. Chem. Phys. 152 154105 (2020);
          URL http://www.quantum-espresso.org", 
     in publications or presentations arising from this work. More details at
     http://www.quantum-espresso.org/quote

     Parallel version (MPI), running on     1 processors

     MPI processes distributed on     1 nodes
     0 MiB available memory on the printing compute node when the environment starts

     Waiting for input...
     Reading input from standard input
     Message from routine read_cards :
     DEPRECATED: no units specified in ATOMIC_POSITIONS card
     Message from routine read_cards :
     ATOMIC_POSITIONS: units set to alat

     Current dimensions of program PWSCF are:
     Max number of different atomic species (ntypx) = 10
     Max number of k-points (npk) =  40000
     Max angular momentum in pseudopotentials (lmaxx) =  4
     file Li.pbe-mt_fhi.UPF: wavefunction(s)  2p 4f renormalized

     IMPORTANT: XC functional enforced from input :
     Exchange-correlation= PZ
                           (   1   1   0   0   0   0   0)
     Any further DFT definition will be discarded
     Please, verify this is what you really want


     Subspace diagonalization in iterative solution of the eigenvalue problem:
     a serial algorithm will be used


     G-vector sticks info
     --------------------
     sticks:   dense  smooth     PW     G-vecs:    dense   smooth      PW
     Sum         217     217     69                 1985     1985     381

     Using Slab Decomposition



     bravais-lattice index     =            3
     lattice parameter (alat)  =       6.9000  a.u.
     unit-cell volume          =     164.2545 (a.u.)^3
     number of atoms/cell      =            1
     number of atomic types    =            1
     number of electrons       =         1.00
     number of Kohn-Sham states=            5
     kinetic-energy cutoff     =      20.0000  Ry
     charge density cutoff     =      80.0000  Ry
     scf convergence threshold =      1.0E-08
     mixing beta               =       0.7000
     number of iterations used =            8  plain     mixing
     Exchange-correlation= PZ
                           (   1   1   0   0   0   0   0)

     celldm(1)=   6.900000  celldm(2)=   0.000000  celldm(3)=   0.000000
     celldm(4)=   0.000000  celldm(5)=   0.000000  celldm(6)=   0.000000

     crystal axes: (cart. coord. in units of alat)
               a(1) = (   0.500000   0.500000   0.500000 )  
               a(2) = (  -0.500000   0.500000   0.500000 )  
               a(3) = (  -0.500000  -0.500000   0.500000 )  

     reciprocal axes: (cart. coord. in units 2 pi/alat)
               b(1) = (  1.000000  0.000000  1.000000 )  
               b(2) = ( -1.000000  1.000000  0.000000 )  
               b(3) = (  0.000000 -1.000000  1.000000 )  


     PseudoPot. # 1 for Li read from file:
     ./pseudopot/Li.pbe-mt_fhi.UPF
     MD5 check sum: 3419f5616d131090147e867976aae79b
     Pseudo is Norm-conserving + core correction, Zval =  1.0
     Generated using FHI98PP, converted with fhi2upf.x v.5.0.2
     Using radial grid of  433 points,  3 beta functions with: 
                l(1) =   0
                l(2) =   1
                l(3) =   3

     atomic species   valence    mass     pseudopotential
     Li                1.00     6.94000     Li( 1.00)

     48 Sym. Ops., with inversion, found



   Cartesian axes

     site n.     atom                  positions (alat units)
         1        Li     tau(   1) = (   0.0000000   0.0000000   0.0000000  )

     number of k points=    44  Methfessel-Paxton smearing, width (Ry)=  0.0100
                       cart. coord. in units 2pi/alat
        k(    1) = (   0.0000000   0.0000000   0.1000000), wk =   0.0120000
        k(    2) = (   0.0000000  -0.1000000   0.2000000), wk =   0.0480000
        k(    3) = (   0.0000000  -0.2000000   0.3000000), wk =   0.0480000
        k(    4) = (   0.0000000  -0.3000000   0.4000000), wk =   0.0480000
        k(    5) = (   0.0000000  -0.4000000   0.5000000), wk =   0.0480000
        k(    6) = (  -0.1000000   0.1000000   0.1000000), wk =   0.0160000
        k(    7) = (  -0.1000000  -0.1000000   0.3000000), wk =   0.0480000
        k(    8) = (  -0.1000000  -0.2000000   0.4000000), wk =   0.0960000
        k(    9) = (  -0.1000000  -0.3000000   0.5000000), wk =   0.0960000
        k(   10) = (  -0.1000000   0.6000000  -0.4000000), wk =   0.0480000
        k(   11) = (  -0.2000000   0.2000000   0.1000000), wk =   0.0480000
        k(   12) = (  -0.2000000  -0.2000000   0.5000000), wk =   0.0480000
        k(   13) = (  -0.2000000   0.7000000  -0.4000000), wk =   0.0960000
        k(   14) = (  -0.3000000   0.3000000   0.1000000), wk =   0.0480000
        k(   15) = (  -0.3000000   0.2000000   0.2000000), wk =   0.0480000
        k(   16) = (  -0.3000000   0.7000000  -0.3000000), wk =   0.0160000
        k(   17) = (  -0.4000000   0.4000000   0.1000000), wk =   0.0480000
        k(   18) = (  -0.4000000   0.3000000   0.2000000), wk =   0.0960000
        k(   19) = (   0.5000000  -0.5000000   0.1000000), wk =   0.0240000
        k(   20) = (   0.5000000  -0.6000000   0.2000000), wk =   0.0960000
        k(   21) = (   0.5000000  -0.7000000   0.3000000), wk =   0.0480000
        k(   22) = (   0.4000000  -0.6000000   0.3000000), wk =   0.0480000
        k(   23) = (   0.0000000   0.0000000   0.3000000), wk =   0.0120000
        k(   24) = (   0.0000000  -0.1000000   0.4000000), wk =   0.0480000
        k(   25) = (   0.0000000  -0.2000000   0.5000000), wk =   0.0480000
        k(   26) = (   0.0000000  -0.3000000   0.6000000), wk =   0.0480000
        k(   27) = (  -0.1000000  -0.1000000   0.5000000), wk =   0.0480000
        k(   28) = (  -0.1000000  -0.2000000   0.6000000), wk =   0.0960000
        k(   29) = (  -0.1000000   0.7000000  -0.3000000), wk =   0.0480000
        k(   30) = (  -0.2000000   0.8000000  -0.3000000), wk =   0.0480000
        k(   31) = (  -0.3000000   0.3000000   0.3000000), wk =   0.0160000
        k(   32) = (   0.6000000  -0.6000000   0.3000000), wk =   0.0480000
        k(   33) = (   0.5000000  -0.5000000   0.3000000), wk =   0.0240000
        k(   34) = (   0.5000000  -0.6000000   0.4000000), wk =   0.0480000
        k(   35) = (   0.0000000   0.0000000   0.5000000), wk =   0.0120000
        k(   36) = (   0.0000000  -0.1000000   0.6000000), wk =   0.0480000
        k(   37) = (   0.0000000  -0.2000000   0.7000000), wk =   0.0480000
        k(   38) = (  -0.1000000  -0.1000000   0.7000000), wk =   0.0480000
        k(   39) = (  -0.1000000   0.8000000  -0.2000000), wk =   0.0480000
        k(   40) = (   0.5000000  -0.5000000   0.5000000), wk =   0.0040000
        k(   41) = (   0.0000000   0.0000000   0.7000000), wk =   0.0120000
        k(   42) = (   0.0000000  -0.1000000   0.8000000), wk =   0.0480000
        k(   43) = (  -0.1000000   0.9000000  -0.1000000), wk =   0.0160000
        k(   44) = (   0.0000000   0.0000000   0.9000000), wk =   0.0120000

     Dense  grid:     1985 G-vectors     FFT dimensions: (  18,  18,  18)

     Estimated max dynamical RAM per process >       2.49 MB

     Initial potential from superposition of free atoms

     starting charge       0.9960, renormalised to       1.0000
     Starting wfcs are   16 randomized atomic wfcs

     total cpu time spent up to now is        0.1 secs

     Self-consistent Calculation

     iteration #  1     ecut=    20.00 Ry     beta= 0.70
     Davidson diagonalization with overlap
     ethr =  1.00E-02,  avg # of iterations =  5.0

     Threshold (ethr) on eigenvalues was too large:
     Diagonalizing with lowered threshold

     Davidson diagonalization with overlap
     ethr =  1.38E-05,  avg # of iterations =  4.2

     total cpu time spent up to now is        0.3 secs

     total energy              =      -0.68544583 Ry
     estimated scf accuracy    <       0.00013801 Ry

     iteration #  2     ecut=    20.00 Ry     beta= 0.70
     Davidson diagonalization with overlap
     ethr =  1.38E-05,  avg # of iterations =  1.0

     total cpu time spent up to now is        0.4 secs

     total energy              =      -0.68544507 Ry
     estimated scf accuracy    <       0.00001231 Ry

     iteration #  3     ecut=    20.00 Ry     beta= 0.70
     Davidson diagonalization with overlap
     ethr =  1.23E-06,  avg # of iterations =  1.3

     total cpu time spent up to now is        0.4 secs

     End of self-consistent calculation

          k = 0.0000 0.0000 0.1000 (   237 PWs)   bands (ev):

    -3.2888  12.2129  12.2129  12.4316  16.1492

          k = 0.0000-0.1000 0.2000 (   246 PWs)   bands (ev):

    -2.9326  10.3279  11.0883  11.9935  14.5826

          k = 0.0000-0.2000 0.3000 (   246 PWs)   bands (ev):

    -2.2229   7.5876   9.9624  11.3228  13.9416

          k = 0.0000-0.3000 0.4000 (   251 PWs)   bands (ev):

    -1.1822   5.0219   9.1565  10.7200  13.0615

          k = 0.0000-0.4000 0.5000 (   251 PWs)   bands (ev):

     0.0104   3.0413   8.7441  10.3861  12.6188

          k =-0.1000 0.1000 0.1000 (   240 PWs)   bands (ev):

    -3.1109  11.3249  11.7149  11.7150  15.4244

          k =-0.1000-0.1000 0.3000 (   252 PWs)   bands (ev):

    -2.3980   8.8768   9.2485  11.4153  13.8054

          k =-0.1000-0.2000 0.4000 (   247 PWs)   bands (ev):

    -1.5139   6.3530   8.1958  10.7719  13.7707

          k =-0.1000-0.3000 0.5000 (   248 PWs)   bands (ev):

    -0.3332   4.0374   7.6029  10.2802  13.7677

          k =-0.1000 0.6000-0.4000 (   249 PWs)   bands (ev):

     0.5775   2.7383   7.4040  10.1037  13.7027

          k =-0.2000 0.2000 0.1000 (   246 PWs)   bands (ev):

    -2.5777   9.0179  10.3182  10.7168  14.9308

          k =-0.2000-0.2000 0.5000 (   248 PWs)   bands (ev):

    -0.4627   4.9478   6.4552  10.3618  14.0161

          k =-0.2000 0.7000-0.4000 (   251 PWs)   bands (ev):

     0.8148   3.1986   5.8113  10.1064  14.4256

          k =-0.3000 0.3000 0.1000 (   251 PWs)   bands (ev):

    -1.6969   6.2833   9.4340   9.8164  14.3171

          k =-0.3000 0.2000 0.2000 (   252 PWs)   bands (ev):

    -1.8689   7.5335   8.2651   9.5635  15.5976

          k =-0.3000 0.7000-0.3000 (   243 PWs)   bands (ev):

     2.1187   2.1187   5.0585  10.0459  15.6109

          k =-0.4000 0.4000 0.1000 (   253 PWs)   bands (ev):

    -0.5261   3.9383   8.8810   9.2347  13.8217

          k =-0.4000 0.3000 0.2000 (   249 PWs)   bands (ev):

    -0.8210   5.1690   7.3067   8.9110  15.6949

          k = 0.5000-0.5000 0.1000 (   258 PWs)   bands (ev):

     0.3580   2.6565   8.6934   9.0359  13.6418

          k = 0.5000-0.6000 0.2000 (   253 PWs)   bands (ev):

     0.4188   3.1685   6.8937   8.5768  15.5763

          k = 0.5000-0.7000 0.3000 (   250 PWs)   bands (ev):

     0.3798   3.8818   5.6931   8.4978  16.8050

          k = 0.4000-0.6000 0.3000 (   246 PWs)   bands (ev):

     1.4645   2.6490   5.2629   8.3576  16.9706

          k = 0.0000 0.0000 0.3000 (   249 PWs)   bands (ev):

    -2.5741   9.8454   9.8455  11.4592  12.5483

          k = 0.0000-0.1000 0.4000 (   247 PWs)   bands (ev):

    -1.8591   7.7214   8.6659  11.0018  12.0119

          k = 0.0000-0.2000 0.5000 (   249 PWs)   bands (ev):

    -0.8067   5.2534   7.8365  10.4585  12.6857

          k = 0.0000-0.3000 0.6000 (   250 PWs)   bands (ev):

     0.4241   3.2631   7.4144  10.1573  13.5684

          k =-0.1000-0.1000 0.5000 (   244 PWs)   bands (ev):

    -0.9663   6.3622   7.1213  10.9831  11.3664

          k =-0.1000-0.2000 0.6000 (   245 PWs)   bands (ev):

     0.2401   4.3233   6.3663  10.6483  12.1455

          k =-0.1000 0.7000-0.3000 (   245 PWs)   bands (ev):

     1.2334   2.9883   6.1502  10.4935  12.9365

          k =-0.2000 0.8000-0.3000 (   243 PWs)   bands (ev):

     1.5585   3.1948   5.2350  11.1606  12.3755

          k =-0.3000 0.3000 0.3000 (   252 PWs)   bands (ev):

    -0.9873   6.4971   6.4972   8.0526  17.0208

          k = 0.6000-0.6000 0.3000 (   245 PWs)   bands (ev):

     0.2175   4.2595   5.8610   7.5466  17.7245

          k = 0.5000-0.5000 0.3000 (   248 PWs)   bands (ev):

     1.2456   2.8599   5.6472   7.3952  17.9026

          k = 0.5000-0.6000 0.4000 (   248 PWs)   bands (ev):

     1.5546   3.2325   4.5550   7.1415  18.8819

          k = 0.0000 0.0000 0.5000 (   241 PWs)   bands (ev):

    -1.1336   7.4640   7.4640   9.8443  10.7202

          k = 0.0000-0.1000 0.6000 (   243 PWs)   bands (ev):

    -0.0606   5.6753   6.6249   9.5540  10.7982

          k = 0.0000-0.2000 0.7000 (   249 PWs)   bands (ev):

     1.2392   3.7306   6.1986   9.5586  11.7811

          k =-0.1000-0.1000 0.7000 (   253 PWs)   bands (ev):

     1.1746   4.6322   5.5830   9.6283  10.7104

          k =-0.1000 0.8000-0.2000 (   248 PWs)   bands (ev):

     2.3132   3.3879   5.2534   9.9431  11.5185

          k = 0.5000-0.5000 0.5000 (   240 PWs)   bands (ev):

     3.0150   3.0150   3.0150   6.7616  20.7015

          k = 0.0000 0.0000 0.7000 (   249 PWs)   bands (ev):

     1.0412   5.7812   5.7812   8.0412  10.2678

          k = 0.0000-0.1000 0.8000 (   245 PWs)   bands (ev):

     2.4190   4.4370   5.3535   8.2662  10.0156

          k =-0.1000 0.9000-0.1000 (   245 PWs)   bands (ev):

     3.7588   3.7588   4.8729   8.7481   8.7481

          k = 0.0000 0.0000 0.9000 (   237 PWs)   bands (ev):

     3.8422   4.9251   4.9251   7.1396   8.1212

     the Fermi energy is     0.0218 ev

!    total energy              =      -0.68544513 Ry
     estimated scf accuracy    <          9.1E-10 Ry
     smearing contrib. (-TS)   =      -0.00000500 Ry
     internal energy E=F+TS    =      -0.68544014 Ry

     The total energy is F=E-TS. E is the sum of the following terms:
     one-electron contribution =       0.36069046 Ry
     hartree contribution      =       0.00069728 Ry
     xc contribution           =      -0.51940269 Ry
     ewald contribution        =      -0.52742517 Ry

     convergence has been achieved in   3 iterations

     Forces acting on atoms (cartesian axes, Ry/au):

     atom    1 type  1   force =     0.00000000    0.00000000    0.00000000

     Total force =     0.000000     Total SCF correction =     0.000000


     Computing stress (Cartesian axis) and pressure

          total   stress  (Ry/bohr**3)                   (kbar)     P=      -26.16
  -0.00017782  -0.00000000   0.00000000          -26.16       -0.00        0.00
  -0.00000000  -0.00017782  -0.00000000           -0.00      -26.16       -0.00
   0.00000000  -0.00000000  -0.00017782            0.00       -0.00      -26.16


     Writing all to output data dir ./QE-outdir/li.save/ :
     XML data file, charge density, pseudopotentials, collected wavefunctions

     init_run     :      0.06s CPU      0.08s WALL (       1 calls)
     electrons    :      0.23s CPU      0.33s WALL (       1 calls)
     forces       :      0.00s CPU      0.00s WALL (       1 calls)
     stress       :      0.03s CPU      0.03s WALL (       1 calls)

     Called by init_run:
     wfcinit      :      0.05s CPU      0.07s WALL (       1 calls)
     potinit      :      0.00s CPU      0.00s WALL (       1 calls)
     hinit0       :      0.01s CPU      0.01s WALL (       1 calls)

     Called by electrons:
     c_bands      :      0.20s CPU      0.30s WALL (       4 calls)
     sum_band     :      0.03s CPU      0.03s WALL (       4 calls)
     v_of_rho     :      0.00s CPU      0.00s WALL (       4 calls)
     mix_rho      :      0.00s CPU      0.00s WALL (       4 calls)

     Called by c_bands:
     init_us_2    :      0.01s CPU      0.01s WALL (     484 calls)
     cegterg      :      0.19s CPU      0.29s WALL (     176 calls)

     Called by *egterg:
     cdiaghg      :      0.07s CPU      0.18s WALL (     640 calls)
     h_psi        :      0.15s CPU      0.16s WALL (     728 calls)
     g_psi        :      0.00s CPU      0.00s WALL (     508 calls)

     Called by h_psi:
     h_psi:calbec :      0.00s CPU      0.00s WALL (     728 calls)
     vloc_psi     :      0.14s CPU      0.15s WALL (     728 calls)
                                        0.00s GPU  (     728 calls)
     add_vuspsi   :      0.00s CPU      0.00s WALL (     728 calls)

     General routines
     calbec       :      0.01s CPU      0.01s WALL (    1476 calls)
     fft          :      0.00s CPU      0.00s WALL (      20 calls)
     ffts         :      0.00s CPU      0.00s WALL (       4 calls)
     fftw         :      0.15s CPU      0.15s WALL (    7484 calls)

     Parallel routines

     PWSCF        :      0.33s CPU      0.45s WALL


   This run was terminated on:  14: 5:40  26Jan2026            

=------------------------------------------------------------------------------=
   JOB DONE.
=------------------------------------------------------------------------------=
