
     Program PWSCF v.7.5 starts on 31Jan2026 at 23:30:48 

     This program is part of the open-source Quantum ESPRESSO suite
     for quantum simulation of materials; please cite
         "P. Giannozzi et al., J. Phys.:Condens. Matter 21 395502 (2009);
         "P. Giannozzi et al., J. Phys.:Condens. Matter 29 465901 (2017);
         "P. Giannozzi et al., J. Chem. Phys. 152 154105 (2020);
          URL http://www.quantum-espresso.org", 
     in publications or presentations arising from this work. More details at
     http://www.quantum-espresso.org/quote

     Parallel version (MPI), running on     1 processors

     MPI processes distributed on     1 nodes
     0 MiB available memory on the printing compute node when the environment starts

     Waiting for input...
     Reading input from standard input
     Message from routine read_cards :
     DEPRECATED: no units specified in ATOMIC_POSITIONS card
     Message from routine read_cards :
     ATOMIC_POSITIONS: units set to alat

     Current dimensions of program PWSCF are:
     Max number of different atomic species (ntypx) = 10
     Max number of k-points (npk) =  40000
     Max angular momentum in pseudopotentials (lmaxx) =  4
     file Li.pbe-mt_fhi.UPF: wavefunction(s)  2p 4f renormalized

     IMPORTANT: XC functional enforced from input :
     Exchange-correlation= PZ
                           (   1   1   0   0   0   0   0)
     Any further DFT definition will be discarded
     Please, verify this is what you really want


     Subspace diagonalization in iterative solution of the eigenvalue problem:
     a serial algorithm will be used


     G-vector sticks info
     --------------------
     sticks:   dense  smooth     PW     G-vecs:    dense   smooth      PW
     Sum         169     169     63                 1409     1409     321

     Using Slab Decomposition



     bravais-lattice index     =            3
     lattice parameter (alat)  =       6.1100  a.u.
     unit-cell volume          =     114.0496 (a.u.)^3
     number of atoms/cell      =            1
     number of atomic types    =            1
     number of electrons       =         1.00
     number of Kohn-Sham states=            5
     kinetic-energy cutoff     =      20.0000  Ry
     charge density cutoff     =      80.0000  Ry
     scf convergence threshold =      1.0E-08
     mixing beta               =       0.7000
     number of iterations used =            8  plain     mixing
     Exchange-correlation= PZ
                           (   1   1   0   0   0   0   0)

     celldm(1)=   6.110000  celldm(2)=   0.000000  celldm(3)=   0.000000
     celldm(4)=   0.000000  celldm(5)=   0.000000  celldm(6)=   0.000000

     crystal axes: (cart. coord. in units of alat)
               a(1) = (   0.500000   0.500000   0.500000 )  
               a(2) = (  -0.500000   0.500000   0.500000 )  
               a(3) = (  -0.500000  -0.500000   0.500000 )  

     reciprocal axes: (cart. coord. in units 2 pi/alat)
               b(1) = (  1.000000  0.000000  1.000000 )  
               b(2) = ( -1.000000  1.000000  0.000000 )  
               b(3) = (  0.000000 -1.000000  1.000000 )  


     PseudoPot. # 1 for Li read from file:
     ./pseudopot/Li.pbe-mt_fhi.UPF
     MD5 check sum: 3419f5616d131090147e867976aae79b
     Pseudo is Norm-conserving + core correction, Zval =  1.0
     Generated using FHI98PP, converted with fhi2upf.x v.5.0.2
     Using radial grid of  433 points,  3 beta functions with: 
                l(1) =   0
                l(2) =   1
                l(3) =   3

     atomic species   valence    mass     pseudopotential
     Li                1.00     6.94000     Li( 1.00)

     48 Sym. Ops., with inversion, found



   Cartesian axes

     site n.     atom                  positions (alat units)
         1        Li     tau(   1) = (   0.0000000   0.0000000   0.0000000  )

     number of k points=    44  Methfessel-Paxton smearing, width (Ry)=  0.0100
                       cart. coord. in units 2pi/alat
        k(    1) = (   0.0000000   0.0000000   0.1000000), wk =   0.0120000
        k(    2) = (   0.0000000  -0.1000000   0.2000000), wk =   0.0480000
        k(    3) = (   0.0000000  -0.2000000   0.3000000), wk =   0.0480000
        k(    4) = (   0.0000000  -0.3000000   0.4000000), wk =   0.0480000
        k(    5) = (   0.0000000  -0.4000000   0.5000000), wk =   0.0480000
        k(    6) = (  -0.1000000   0.1000000   0.1000000), wk =   0.0160000
        k(    7) = (  -0.1000000  -0.1000000   0.3000000), wk =   0.0480000
        k(    8) = (  -0.1000000  -0.2000000   0.4000000), wk =   0.0960000
        k(    9) = (  -0.1000000  -0.3000000   0.5000000), wk =   0.0960000
        k(   10) = (  -0.1000000   0.6000000  -0.4000000), wk =   0.0480000
        k(   11) = (  -0.2000000   0.2000000   0.1000000), wk =   0.0480000
        k(   12) = (  -0.2000000  -0.2000000   0.5000000), wk =   0.0480000
        k(   13) = (  -0.2000000   0.7000000  -0.4000000), wk =   0.0960000
        k(   14) = (  -0.3000000   0.3000000   0.1000000), wk =   0.0480000
        k(   15) = (  -0.3000000   0.2000000   0.2000000), wk =   0.0480000
        k(   16) = (  -0.3000000   0.7000000  -0.3000000), wk =   0.0160000
        k(   17) = (  -0.4000000   0.4000000   0.1000000), wk =   0.0480000
        k(   18) = (  -0.4000000   0.3000000   0.2000000), wk =   0.0960000
        k(   19) = (   0.5000000  -0.5000000   0.1000000), wk =   0.0240000
        k(   20) = (   0.5000000  -0.6000000   0.2000000), wk =   0.0960000
        k(   21) = (   0.5000000  -0.7000000   0.3000000), wk =   0.0480000
        k(   22) = (   0.4000000  -0.6000000   0.3000000), wk =   0.0480000
        k(   23) = (   0.0000000   0.0000000   0.3000000), wk =   0.0120000
        k(   24) = (   0.0000000  -0.1000000   0.4000000), wk =   0.0480000
        k(   25) = (   0.0000000  -0.2000000   0.5000000), wk =   0.0480000
        k(   26) = (   0.0000000  -0.3000000   0.6000000), wk =   0.0480000
        k(   27) = (  -0.1000000  -0.1000000   0.5000000), wk =   0.0480000
        k(   28) = (  -0.1000000  -0.2000000   0.6000000), wk =   0.0960000
        k(   29) = (  -0.1000000   0.7000000  -0.3000000), wk =   0.0480000
        k(   30) = (  -0.2000000   0.8000000  -0.3000000), wk =   0.0480000
        k(   31) = (  -0.3000000   0.3000000   0.3000000), wk =   0.0160000
        k(   32) = (   0.6000000  -0.6000000   0.3000000), wk =   0.0480000
        k(   33) = (   0.5000000  -0.5000000   0.3000000), wk =   0.0240000
        k(   34) = (   0.5000000  -0.6000000   0.4000000), wk =   0.0480000
        k(   35) = (   0.0000000   0.0000000   0.5000000), wk =   0.0120000
        k(   36) = (   0.0000000  -0.1000000   0.6000000), wk =   0.0480000
        k(   37) = (   0.0000000  -0.2000000   0.7000000), wk =   0.0480000
        k(   38) = (  -0.1000000  -0.1000000   0.7000000), wk =   0.0480000
        k(   39) = (  -0.1000000   0.8000000  -0.2000000), wk =   0.0480000
        k(   40) = (   0.5000000  -0.5000000   0.5000000), wk =   0.0040000
        k(   41) = (   0.0000000   0.0000000   0.7000000), wk =   0.0120000
        k(   42) = (   0.0000000  -0.1000000   0.8000000), wk =   0.0480000
        k(   43) = (  -0.1000000   0.9000000  -0.1000000), wk =   0.0160000
        k(   44) = (   0.0000000   0.0000000   0.9000000), wk =   0.0120000

     Dense  grid:     1409 G-vectors     FFT dimensions: (  15,  15,  15)

     Estimated max dynamical RAM per process >       1.78 MB

     Initial potential from superposition of free atoms

     starting charge       0.9960, renormalised to       1.0000
     Starting wfcs are   16 randomized atomic wfcs

     total cpu time spent up to now is        0.1 secs

     Self-consistent Calculation

     iteration #  1     ecut=    20.00 Ry     beta= 0.70
     Davidson diagonalization with overlap
     ethr =  1.00E-02,  avg # of iterations =  4.5

     Threshold (ethr) on eigenvalues was too large:
     Diagonalizing with lowered threshold

     Davidson diagonalization with overlap
     ethr =  2.66E-05,  avg # of iterations =  3.5

     total cpu time spent up to now is        0.2 secs

     total energy              =      -0.68890302 Ry
     estimated scf accuracy    <       0.00026801 Ry

     iteration #  2     ecut=    20.00 Ry     beta= 0.70
     Davidson diagonalization with overlap
     ethr =  2.68E-05,  avg # of iterations =  1.1

     total cpu time spent up to now is        0.3 secs

     total energy              =      -0.68889932 Ry
     estimated scf accuracy    <       0.00002322 Ry

     iteration #  3     ecut=    20.00 Ry     beta= 0.70
     Davidson diagonalization with overlap
     ethr =  2.32E-06,  avg # of iterations =  1.4

     total cpu time spent up to now is        0.3 secs

     End of self-consistent calculation

          k = 0.0000 0.0000 0.1000 (   177 PWs)   bands (ev):

    -2.8203  16.7737  16.7737  17.1176  21.2427

          k = 0.0000-0.1000 0.2000 (   173 PWs)   bands (ev):

    -2.4114  14.2567  15.2492  16.4957  19.3952

          k = 0.0000-0.2000 0.3000 (   169 PWs)   bands (ev):

    -1.5955  10.7350  13.7704  15.5502  18.5316

          k = 0.0000-0.3000 0.4000 (   176 PWs)   bands (ev):

    -0.4059   7.5440  12.7218  14.7290  17.4065

          k = 0.0000-0.4000 0.5000 (   176 PWs)   bands (ev):

     0.8926   5.2153  12.1869  14.2810  16.8408

          k =-0.1000 0.1000 0.1000 (   177 PWs)   bands (ev):

    -2.6165  15.6801  16.0284  16.0284  20.5146

          k =-0.1000-0.1000 0.3000 (   172 PWs)   bands (ev):

    -1.7951  12.2327  12.9837  15.7059  18.4017

          k =-0.1000-0.2000 0.4000 (   173 PWs)   bands (ev):

    -0.7740   9.0872  11.6028  14.8072  18.4342

          k =-0.1000-0.3000 0.5000 (   174 PWs)   bands (ev):

     0.5711   6.2696  10.8364  14.1412  18.5530

          k =-0.1000 0.6000-0.4000 (   170 PWs)   bands (ev):

     1.5301   4.8062  10.5809  13.9054  18.4966

          k =-0.2000 0.2000 0.1000 (   173 PWs)   bands (ev):

    -2.0044  12.5293  14.3513  14.6348  19.9579

          k =-0.2000-0.2000 0.5000 (   173 PWs)   bands (ev):

     0.4500   7.1358   9.6461  14.2601  18.6875

          k =-0.2000 0.7000-0.4000 (   173 PWs)   bands (ev):

     1.9137   5.0219   8.8681  13.9287  19.3079

          k =-0.3000 0.3000 0.1000 (   172 PWs)   bands (ev):

    -0.9921   9.0703  13.2377  13.4294  19.1336

          k =-0.3000 0.2000 0.2000 (   175 PWs)   bands (ev):

    -1.1871  10.4639  11.7120  13.3655  20.9649

          k =-0.3000 0.7000-0.3000 (   167 PWs)   bands (ev):

     3.5039   3.5039   8.1275  13.8664  20.7218

          k =-0.4000 0.4000 0.1000 (   172 PWs)   bands (ev):

     0.3308   6.2108  12.5372  12.6626  18.4725

          k =-0.4000 0.3000 0.2000 (   174 PWs)   bands (ev):

     0.0231   7.5448  10.4348  12.6043  21.0749

          k = 0.5000-0.5000 0.1000 (   174 PWs)   bands (ev):

     1.2487   4.7731  12.2986  12.4020  18.2349

          k = 0.5000-0.6000 0.2000 (   170 PWs)   bands (ev):

     1.4115   5.1734   9.8833  12.2124  20.9026

          k = 0.5000-0.7000 0.3000 (   173 PWs)   bands (ev):

     1.4272   5.7619   8.5965  12.1738  22.5875

          k = 0.4000-0.6000 0.3000 (   167 PWs)   bands (ev):

     2.6646   4.2809   8.0876  12.0284  22.7677

          k = 0.0000 0.0000 0.3000 (   177 PWs)   bands (ev):

    -1.9963  13.5767  13.5767  16.0124  16.6501

          k = 0.0000-0.1000 0.4000 (   171 PWs)   bands (ev):

    -1.1661  10.8385  12.0369  15.2982  16.1947

          k = 0.0000-0.2000 0.5000 (   175 PWs)   bands (ev):

     0.0524   7.7551  10.9632  14.6057  17.0994

          k = 0.0000-0.3000 0.6000 (   173 PWs)   bands (ev):

     1.4218   5.3922  10.4187  14.2355  18.2843

          k =-0.1000-0.1000 0.5000 (   171 PWs)   bands (ev):

    -0.1205   8.9767  10.2343  15.2413  15.4274

          k =-0.1000-0.2000 0.6000 (   174 PWs)   bands (ev):

     1.2839   6.4735   9.2956  14.8067  16.4051

          k =-0.1000 0.7000-0.3000 (   170 PWs)   bands (ev):

     2.3712   4.9478   9.0182  14.6163  17.4353

          k =-0.2000 0.8000-0.3000 (   171 PWs)   bands (ev):

     2.8451   4.8878   8.1599  15.5225  16.5582

          k =-0.3000 0.3000 0.3000 (   171 PWs)   bands (ev):

    -0.1640   9.1199   9.1199  11.9499  22.8183

          k = 0.6000-0.6000 0.3000 (   173 PWs)   bands (ev):

     1.2394   6.3321   8.2985  11.4267  24.0439

          k = 0.5000-0.5000 0.3000 (   166 PWs)   bands (ev):

     2.3840   4.6990   8.0230  11.2685  23.9209

          k = 0.5000-0.6000 0.4000 (   167 PWs)   bands (ev):

     2.8313   4.9275   6.7424  11.0750  25.3078

          k = 0.0000 0.0000 0.5000 (   168 PWs)   bands (ev):

    -0.3074  10.4732  10.4732  13.2014  15.3601

          k = 0.0000-0.1000 0.6000 (   172 PWs)   bands (ev):

     0.9628   8.1914   9.3894  12.9974  15.4035

          k = 0.0000-0.2000 0.7000 (   171 PWs)   bands (ev):

     2.4639   5.8321   8.8406  13.3597  16.3040

          k =-0.1000-0.1000 0.7000 (   177 PWs)   bands (ev):

     2.4401   6.7518   8.2444  13.0126  15.2977

          k =-0.1000 0.8000-0.2000 (   177 PWs)   bands (ev):

     3.7587   5.2554   7.8728  13.6053  15.4555

          k = 0.5000-0.5000 0.5000 (   180 PWs)   bands (ev):

     4.6478   4.6478   4.6478  10.8143  27.6781

          k = 0.0000 0.0000 0.7000 (   180 PWs)   bands (ev):

     2.3059   8.3008   8.3008  10.9015  14.8540

          k = 0.0000-0.1000 0.8000 (   176 PWs)   bands (ev):

     3.9695   6.6024   7.7505  11.3020  13.7951

          k =-0.1000 0.9000-0.1000 (   176 PWs)   bands (ev):

     5.6311   5.6311   7.2840  11.8862  11.8862

          k = 0.0000 0.0000 0.9000 (   176 PWs)   bands (ev):

     5.7819   7.1993   7.1993   9.7514  11.1018

     the Fermi energy is     0.9682 ev

!    total energy              =      -0.68889938 Ry
     estimated scf accuracy    <          1.8E-10 Ry
     smearing contrib. (-TS)   =      -0.00006729 Ry
     internal energy E=F+TS    =      -0.68883209 Ry

     The total energy is F=E-TS. E is the sum of the following terms:
     one-electron contribution =       0.47241334 Ry
     hartree contribution      =       0.00131801 Ry
     xc contribution           =      -0.56694419 Ry
     ewald contribution        =      -0.59561925 Ry

     convergence has been achieved in   3 iterations

     Forces acting on atoms (cartesian axes, Ry/au):

     atom    1 type  1   force =     0.00000000    0.00000000    0.00000000

     Total force =     0.000000     Total SCF correction =     0.000000


     Computing stress (Cartesian axis) and pressure

          total   stress  (Ry/bohr**3)                   (kbar)     P=       17.22
   0.00011703  -0.00000000   0.00000000           17.22       -0.00        0.00
  -0.00000000   0.00011703  -0.00000000           -0.00       17.22       -0.00
   0.00000000  -0.00000000   0.00011703            0.00       -0.00       17.22


     Writing all to output data dir ./QE-outdir/li.save/ :
     XML data file, charge density, pseudopotentials, collected wavefunctions

     init_run     :      0.04s CPU      0.06s WALL (       1 calls)
     electrons    :      0.12s CPU      0.21s WALL (       1 calls)
     forces       :      0.00s CPU      0.00s WALL (       1 calls)
     stress       :      0.02s CPU      0.02s WALL (       1 calls)

     Called by init_run:
     wfcinit      :      0.03s CPU      0.04s WALL (       1 calls)
     potinit      :      0.00s CPU      0.00s WALL (       1 calls)
     hinit0       :      0.01s CPU      0.01s WALL (       1 calls)

     Called by electrons:
     c_bands      :      0.11s CPU      0.20s WALL (       4 calls)
     sum_band     :      0.01s CPU      0.01s WALL (       4 calls)
     v_of_rho     :      0.00s CPU      0.00s WALL (       4 calls)
     mix_rho      :      0.00s CPU      0.00s WALL (       4 calls)

     Called by c_bands:
     init_us_2    :      0.01s CPU      0.01s WALL (     484 calls)
     cegterg      :      0.10s CPU      0.19s WALL (     176 calls)

     Called by *egterg:
     cdiaghg      :      0.07s CPU      0.16s WALL (     598 calls)
     h_psi        :      0.05s CPU      0.06s WALL (     686 calls)
     g_psi        :      0.00s CPU      0.00s WALL (     466 calls)

     Called by h_psi:
     h_psi:calbec :      0.00s CPU      0.00s WALL (     686 calls)
     vloc_psi     :      0.05s CPU      0.05s WALL (     686 calls)
                                        0.00s GPU  (     686 calls)
     add_vuspsi   :      0.00s CPU      0.00s WALL (     686 calls)

     General routines
     calbec       :      0.01s CPU      0.01s WALL (    1434 calls)
     fft          :      0.00s CPU      0.00s WALL (      20 calls)
     ffts         :      0.00s CPU      0.00s WALL (       4 calls)
     fftw         :      0.04s CPU      0.04s WALL (    7170 calls)

     Parallel routines

     PWSCF        :      0.19s CPU      0.32s WALL


   This run was terminated on:  23:30:49  31Jan2026            

=------------------------------------------------------------------------------=
   JOB DONE.
=------------------------------------------------------------------------------=
