
     Program PWSCF v.7.5 starts on 31Jan2026 at 23:30:59 

     This program is part of the open-source Quantum ESPRESSO suite
     for quantum simulation of materials; please cite
         "P. Giannozzi et al., J. Phys.:Condens. Matter 21 395502 (2009);
         "P. Giannozzi et al., J. Phys.:Condens. Matter 29 465901 (2017);
         "P. Giannozzi et al., J. Chem. Phys. 152 154105 (2020);
          URL http://www.quantum-espresso.org", 
     in publications or presentations arising from this work. More details at
     http://www.quantum-espresso.org/quote

     Parallel version (MPI), running on     1 processors

     MPI processes distributed on     1 nodes
     0 MiB available memory on the printing compute node when the environment starts

     Waiting for input...
     Reading input from standard input
     Message from routine read_cards :
     DEPRECATED: no units specified in ATOMIC_POSITIONS card
     Message from routine read_cards :
     ATOMIC_POSITIONS: units set to alat

     Current dimensions of program PWSCF are:
     Max number of different atomic species (ntypx) = 10
     Max number of k-points (npk) =  40000
     Max angular momentum in pseudopotentials (lmaxx) =  4
     file Li.pbe-mt_fhi.UPF: wavefunction(s)  2p 4f renormalized

     IMPORTANT: XC functional enforced from input :
     Exchange-correlation= PZ
                           (   1   1   0   0   0   0   0)
     Any further DFT definition will be discarded
     Please, verify this is what you really want


     Subspace diagonalization in iterative solution of the eigenvalue problem:
     a serial algorithm will be used


     G-vector sticks info
     --------------------
     sticks:   dense  smooth     PW     G-vecs:    dense   smooth      PW
     Sum         181     181     67                 1601     1601     369

     Using Slab Decomposition



     bravais-lattice index     =            3
     lattice parameter (alat)  =       6.4600  a.u.
     unit-cell volume          =     134.7931 (a.u.)^3
     number of atoms/cell      =            1
     number of atomic types    =            1
     number of electrons       =         1.00
     number of Kohn-Sham states=            5
     kinetic-energy cutoff     =      20.0000  Ry
     charge density cutoff     =      80.0000  Ry
     scf convergence threshold =      1.0E-08
     mixing beta               =       0.7000
     number of iterations used =            8  plain     mixing
     Exchange-correlation= PZ
                           (   1   1   0   0   0   0   0)

     celldm(1)=   6.460000  celldm(2)=   0.000000  celldm(3)=   0.000000
     celldm(4)=   0.000000  celldm(5)=   0.000000  celldm(6)=   0.000000

     crystal axes: (cart. coord. in units of alat)
               a(1) = (   0.500000   0.500000   0.500000 )  
               a(2) = (  -0.500000   0.500000   0.500000 )  
               a(3) = (  -0.500000  -0.500000   0.500000 )  

     reciprocal axes: (cart. coord. in units 2 pi/alat)
               b(1) = (  1.000000  0.000000  1.000000 )  
               b(2) = ( -1.000000  1.000000  0.000000 )  
               b(3) = (  0.000000 -1.000000  1.000000 )  


     PseudoPot. # 1 for Li read from file:
     ./pseudopot/Li.pbe-mt_fhi.UPF
     MD5 check sum: 3419f5616d131090147e867976aae79b
     Pseudo is Norm-conserving + core correction, Zval =  1.0
     Generated using FHI98PP, converted with fhi2upf.x v.5.0.2
     Using radial grid of  433 points,  3 beta functions with: 
                l(1) =   0
                l(2) =   1
                l(3) =   3

     atomic species   valence    mass     pseudopotential
     Li                1.00     6.94000     Li( 1.00)

     48 Sym. Ops., with inversion, found



   Cartesian axes

     site n.     atom                  positions (alat units)
         1        Li     tau(   1) = (   0.0000000   0.0000000   0.0000000  )

     number of k points=    44  Methfessel-Paxton smearing, width (Ry)=  0.0100
                       cart. coord. in units 2pi/alat
        k(    1) = (   0.0000000   0.0000000   0.1000000), wk =   0.0120000
        k(    2) = (   0.0000000  -0.1000000   0.2000000), wk =   0.0480000
        k(    3) = (   0.0000000  -0.2000000   0.3000000), wk =   0.0480000
        k(    4) = (   0.0000000  -0.3000000   0.4000000), wk =   0.0480000
        k(    5) = (   0.0000000  -0.4000000   0.5000000), wk =   0.0480000
        k(    6) = (  -0.1000000   0.1000000   0.1000000), wk =   0.0160000
        k(    7) = (  -0.1000000  -0.1000000   0.3000000), wk =   0.0480000
        k(    8) = (  -0.1000000  -0.2000000   0.4000000), wk =   0.0960000
        k(    9) = (  -0.1000000  -0.3000000   0.5000000), wk =   0.0960000
        k(   10) = (  -0.1000000   0.6000000  -0.4000000), wk =   0.0480000
        k(   11) = (  -0.2000000   0.2000000   0.1000000), wk =   0.0480000
        k(   12) = (  -0.2000000  -0.2000000   0.5000000), wk =   0.0480000
        k(   13) = (  -0.2000000   0.7000000  -0.4000000), wk =   0.0960000
        k(   14) = (  -0.3000000   0.3000000   0.1000000), wk =   0.0480000
        k(   15) = (  -0.3000000   0.2000000   0.2000000), wk =   0.0480000
        k(   16) = (  -0.3000000   0.7000000  -0.3000000), wk =   0.0160000
        k(   17) = (  -0.4000000   0.4000000   0.1000000), wk =   0.0480000
        k(   18) = (  -0.4000000   0.3000000   0.2000000), wk =   0.0960000
        k(   19) = (   0.5000000  -0.5000000   0.1000000), wk =   0.0240000
        k(   20) = (   0.5000000  -0.6000000   0.2000000), wk =   0.0960000
        k(   21) = (   0.5000000  -0.7000000   0.3000000), wk =   0.0480000
        k(   22) = (   0.4000000  -0.6000000   0.3000000), wk =   0.0480000
        k(   23) = (   0.0000000   0.0000000   0.3000000), wk =   0.0120000
        k(   24) = (   0.0000000  -0.1000000   0.4000000), wk =   0.0480000
        k(   25) = (   0.0000000  -0.2000000   0.5000000), wk =   0.0480000
        k(   26) = (   0.0000000  -0.3000000   0.6000000), wk =   0.0480000
        k(   27) = (  -0.1000000  -0.1000000   0.5000000), wk =   0.0480000
        k(   28) = (  -0.1000000  -0.2000000   0.6000000), wk =   0.0960000
        k(   29) = (  -0.1000000   0.7000000  -0.3000000), wk =   0.0480000
        k(   30) = (  -0.2000000   0.8000000  -0.3000000), wk =   0.0480000
        k(   31) = (  -0.3000000   0.3000000   0.3000000), wk =   0.0160000
        k(   32) = (   0.6000000  -0.6000000   0.3000000), wk =   0.0480000
        k(   33) = (   0.5000000  -0.5000000   0.3000000), wk =   0.0240000
        k(   34) = (   0.5000000  -0.6000000   0.4000000), wk =   0.0480000
        k(   35) = (   0.0000000   0.0000000   0.5000000), wk =   0.0120000
        k(   36) = (   0.0000000  -0.1000000   0.6000000), wk =   0.0480000
        k(   37) = (   0.0000000  -0.2000000   0.7000000), wk =   0.0480000
        k(   38) = (  -0.1000000  -0.1000000   0.7000000), wk =   0.0480000
        k(   39) = (  -0.1000000   0.8000000  -0.2000000), wk =   0.0480000
        k(   40) = (   0.5000000  -0.5000000   0.5000000), wk =   0.0040000
        k(   41) = (   0.0000000   0.0000000   0.7000000), wk =   0.0120000
        k(   42) = (   0.0000000  -0.1000000   0.8000000), wk =   0.0480000
        k(   43) = (  -0.1000000   0.9000000  -0.1000000), wk =   0.0160000
        k(   44) = (   0.0000000   0.0000000   0.9000000), wk =   0.0120000

     Dense  grid:     1601 G-vectors     FFT dimensions: (  15,  15,  15)

     Estimated max dynamical RAM per process >       1.99 MB

     Initial potential from superposition of free atoms

     starting charge       0.9960, renormalised to       1.0000
     Starting wfcs are   16 randomized atomic wfcs

     total cpu time spent up to now is        0.1 secs

     Self-consistent Calculation

     iteration #  1     ecut=    20.00 Ry     beta= 0.70
     Davidson diagonalization with overlap
     ethr =  1.00E-02,  avg # of iterations =  4.5

     Threshold (ethr) on eigenvalues was too large:
     Diagonalizing with lowered threshold

     Davidson diagonalization with overlap
     ethr =  1.83E-05,  avg # of iterations =  3.6

     total cpu time spent up to now is        0.2 secs

     total energy              =      -0.68925018 Ry
     estimated scf accuracy    <       0.00018231 Ry

     iteration #  2     ecut=    20.00 Ry     beta= 0.70
     Davidson diagonalization with overlap
     ethr =  1.82E-05,  avg # of iterations =  1.0

     total cpu time spent up to now is        0.2 secs

     total energy              =      -0.68924794 Ry
     estimated scf accuracy    <       0.00001585 Ry

     iteration #  3     ecut=    20.00 Ry     beta= 0.70
     Davidson diagonalization with overlap
     ethr =  1.58E-06,  avg # of iterations =  1.6

     total cpu time spent up to now is        0.3 secs

     End of self-consistent calculation

          k = 0.0000 0.0000 0.1000 (   201 PWs)   bands (ev):

    -3.0810  14.5379  14.5380  14.8198  18.7496

          k = 0.0000-0.1000 0.2000 (   202 PWs)   bands (ev):

    -2.6948  12.3324  13.2093  14.2900  17.0369

          k = 0.0000-0.2000 0.3000 (   202 PWs)   bands (ev):

    -1.9250   9.1903  11.9029  13.4795  16.2830

          k = 0.0000-0.3000 0.4000 (   197 PWs)   bands (ev):

    -0.8000   6.2998  10.9741  12.7658  15.2776

          k = 0.0000-0.4000 0.5000 (   199 PWs)   bands (ev):

     0.4551   4.1340  10.4992  12.3738  14.7721

          k =-0.1000 0.1000 0.1000 (   198 PWs)   bands (ev):

    -2.8883  13.5444  13.9169  13.9169  18.0189

          k =-0.1000-0.1000 0.3000 (   203 PWs)   bands (ev):

    -2.1142  10.5881  11.1517  13.6047  16.1497

          k =-0.1000-0.2000 0.4000 (   199 PWs)   bands (ev):

    -1.1534   7.7463   9.9275  12.8309  16.1503

          k =-0.1000-0.3000 0.5000 (   200 PWs)   bands (ev):

     0.1194   5.1682   9.2454  12.2503  16.2101

          k =-0.1000 0.6000-0.4000 (   200 PWs)   bands (ev):

     1.0585   3.7822   9.0174  12.0433  16.1493

          k =-0.2000 0.2000 0.1000 (   201 PWs)   bands (ev):

    -2.3103  10.8107  12.3699  12.7167  17.4935

          k =-0.2000-0.2000 0.5000 (   203 PWs)   bands (ev):

    -0.0078   6.0611   8.0718  12.3499  16.3994

          k =-0.2000 0.7000-0.4000 (   206 PWs)   bands (ev):

     1.3704   4.1261   7.3538  12.0552  16.9195

          k =-0.3000 0.3000 0.1000 (   201 PWs)   bands (ev):

    -1.3552   7.7010  11.3681  11.6604  16.7745

          k =-0.3000 0.2000 0.2000 (   203 PWs)   bands (ev):

    -1.5405   9.0270  10.0285  11.4893  18.3354

          k =-0.3000 0.7000-0.3000 (   209 PWs)   bands (ev):

     2.8208   2.8208   6.6079  11.9918  18.2189

          k =-0.4000 0.4000 0.1000 (   201 PWs)   bands (ev):

    -0.0979   5.0863  10.7397  10.9841  16.1951

          k =-0.4000 0.3000 0.2000 (   200 PWs)   bands (ev):

    -0.4026   6.3790   8.9034  10.7782  18.4432

          k = 0.5000-0.5000 0.1000 (   198 PWs)   bands (ev):

     0.8074   3.7219  10.5264  10.7539  15.9860

          k = 0.5000-0.6000 0.2000 (   204 PWs)   bands (ev):

     0.9200   4.1843   8.4191  10.4127  18.2981

          k = 0.5000-0.7000 0.3000 (   201 PWs)   bands (ev):

     0.9074   4.8376   7.1734  10.3516  19.8498

          k = 0.4000-0.6000 0.3000 (   204 PWs)   bands (ev):

     2.0720   3.4791   6.7008  10.2064  19.9382

          k = 0.0000 0.0000 0.3000 (   205 PWs)   bands (ev):

    -2.3045  11.7478  11.7478  13.7800  14.6409

          k = 0.0000-0.1000 0.4000 (   201 PWs)   bands (ev):

    -1.5255   9.3102  10.3839  13.2064  14.1286

          k = 0.0000-0.2000 0.5000 (   204 PWs)   bands (ev):

    -0.3812   6.5242   9.4298  12.5733  14.9333

          k = 0.0000-0.3000 0.6000 (   208 PWs)   bands (ev):

     0.9279   4.3376   8.9449  12.2333  15.9723

          k =-0.1000-0.1000 0.5000 (   204 PWs)   bands (ev):

    -0.5493   7.6938   8.7054  13.2462  13.3419

          k =-0.1000-0.2000 0.6000 (   207 PWs)   bands (ev):

     0.7647   5.4173   7.8522  12.7732  14.3106

          k =-0.1000 0.7000-0.3000 (   210 PWs)   bands (ev):

     1.8089   3.9832   7.6036  12.5956  15.2279

          k =-0.2000 0.8000-0.3000 (   205 PWs)   bands (ev):

     2.2103   4.0549   6.7149  13.3852  14.5089

          k =-0.3000 0.3000 0.3000 (   198 PWs)   bands (ev):

    -0.5808   7.8333   7.8333  10.0249  19.9770

          k = 0.6000-0.6000 0.3000 (   198 PWs)   bands (ev):

     0.7314   5.3145   7.1027   9.5022  21.0664

          k = 0.5000-0.5000 0.3000 (   206 PWs)   bands (ev):

     1.8213   3.7946   6.8572   9.3447  20.9756

          k = 0.5000-0.6000 0.4000 (   204 PWs)   bands (ev):

     2.2014   4.0934   5.6719   9.1165  22.1626

          k = 0.0000 0.0000 0.5000 (   201 PWs)   bands (ev):

    -0.7281   8.9966   8.9966  11.5558  13.0814

          k = 0.0000-0.1000 0.6000 (   204 PWs)   bands (ev):

     0.4510   6.9565   8.0325  11.3162  13.1328

          k = 0.0000-0.2000 0.7000 (   208 PWs)   bands (ev):

     1.8591   4.7964   7.5435  11.5052  14.0779

          k =-0.1000-0.1000 0.7000 (   208 PWs)   bands (ev):

     1.8139   5.7108   6.9363  11.3531  13.0545

          k =-0.1000 0.8000-0.2000 (   208 PWs)   bands (ev):

     3.0465   4.3387   6.5825  11.8196  13.5261

          k = 0.5000-0.5000 0.5000 (   216 PWs)   bands (ev):

     3.8441   3.8441   3.8441   8.7991  24.2570

          k = 0.0000 0.0000 0.7000 (   212 PWs)   bands (ev):

     1.6789   7.0636   7.0636   9.4985  12.6166

          k = 0.0000-0.1000 0.8000 (   216 PWs)   bands (ev):

     3.2057   5.5382   6.5729   9.8144  11.9631

          k =-0.1000 0.9000-0.1000 (   212 PWs)   bands (ev):

     4.7106   4.7106   6.0993  10.3468  10.3468

          k = 0.0000 0.0000 0.9000 (   212 PWs)   bands (ev):

     4.8284   6.0819   6.0819   8.4697   9.6404

     the Fermi energy is     0.4906 ev

!    total energy              =      -0.68924799 Ry
     estimated scf accuracy    <          2.8E-10 Ry
     smearing contrib. (-TS)   =      -0.00007121 Ry
     internal energy E=F+TS    =      -0.68917678 Ry

     The total energy is F=E-TS. E is the sum of the following terms:
     one-electron contribution =       0.41743886 Ry
     hartree contribution      =       0.00101862 Ry
     xc contribution           =      -0.54428539 Ry
     ewald contribution        =      -0.56334887 Ry

     convergence has been achieved in   3 iterations

     Forces acting on atoms (cartesian axes, Ry/au):

     atom    1 type  1   force =     0.00000000    0.00000000    0.00000000

     Total force =     0.000000     Total SCF correction =     0.000000


     Computing stress (Cartesian axis) and pressure

          total   stress  (Ry/bohr**3)                   (kbar)     P=       -9.54
  -0.00006485   0.00000000  -0.00000000           -9.54        0.00       -0.00
   0.00000000  -0.00006485   0.00000000            0.00       -9.54        0.00
  -0.00000000   0.00000000  -0.00006485           -0.00        0.00       -9.54


     Writing all to output data dir ./QE-outdir/li.save/ :
     XML data file, charge density, pseudopotentials, collected wavefunctions

     init_run     :      0.04s CPU      0.06s WALL (       1 calls)
     electrons    :      0.13s CPU      0.22s WALL (       1 calls)
     forces       :      0.00s CPU      0.00s WALL (       1 calls)
     stress       :      0.02s CPU      0.02s WALL (       1 calls)

     Called by init_run:
     wfcinit      :      0.03s CPU      0.04s WALL (       1 calls)
     potinit      :      0.00s CPU      0.00s WALL (       1 calls)
     hinit0       :      0.01s CPU      0.01s WALL (       1 calls)

     Called by electrons:
     c_bands      :      0.12s CPU      0.20s WALL (       4 calls)
     sum_band     :      0.01s CPU      0.01s WALL (       4 calls)
     v_of_rho     :      0.00s CPU      0.00s WALL (       4 calls)
     mix_rho      :      0.00s CPU      0.00s WALL (       4 calls)

     Called by c_bands:
     init_us_2    :      0.01s CPU      0.01s WALL (     484 calls)
     cegterg      :      0.11s CPU      0.20s WALL (     176 calls)

     Called by *egterg:
     cdiaghg      :      0.07s CPU      0.16s WALL (     606 calls)
     h_psi        :      0.05s CPU      0.06s WALL (     694 calls)
     g_psi        :      0.00s CPU      0.00s WALL (     474 calls)

     Called by h_psi:
     h_psi:calbec :      0.00s CPU      0.00s WALL (     694 calls)
     vloc_psi     :      0.05s CPU      0.05s WALL (     694 calls)
                                        0.00s GPU  (     694 calls)
     add_vuspsi   :      0.00s CPU      0.00s WALL (     694 calls)

     General routines
     calbec       :      0.01s CPU      0.01s WALL (    1442 calls)
     fft          :      0.00s CPU      0.00s WALL (      20 calls)
     ffts         :      0.00s CPU      0.00s WALL (       4 calls)
     fftw         :      0.04s CPU      0.05s WALL (    7298 calls)

     Parallel routines

     PWSCF        :      0.20s CPU      0.31s WALL


   This run was terminated on:  23:30:59  31Jan2026            

=------------------------------------------------------------------------------=
   JOB DONE.
=------------------------------------------------------------------------------=
