
     Program PWSCF v.7.5 starts on 31Jan2026 at 23:31: 2 

     This program is part of the open-source Quantum ESPRESSO suite
     for quantum simulation of materials; please cite
         "P. Giannozzi et al., J. Phys.:Condens. Matter 21 395502 (2009);
         "P. Giannozzi et al., J. Phys.:Condens. Matter 29 465901 (2017);
         "P. Giannozzi et al., J. Chem. Phys. 152 154105 (2020);
          URL http://www.quantum-espresso.org", 
     in publications or presentations arising from this work. More details at
     http://www.quantum-espresso.org/quote

     Parallel version (MPI), running on     1 processors

     MPI processes distributed on     1 nodes
     0 MiB available memory on the printing compute node when the environment starts

     Waiting for input...
     Reading input from standard input
     Message from routine read_cards :
     DEPRECATED: no units specified in ATOMIC_POSITIONS card
     Message from routine read_cards :
     ATOMIC_POSITIONS: units set to alat

     Current dimensions of program PWSCF are:
     Max number of different atomic species (ntypx) = 10
     Max number of k-points (npk) =  40000
     Max angular momentum in pseudopotentials (lmaxx) =  4
     file Li.pbe-mt_fhi.UPF: wavefunction(s)  2p 4f renormalized

     IMPORTANT: XC functional enforced from input :
     Exchange-correlation= PZ
                           (   1   1   0   0   0   0   0)
     Any further DFT definition will be discarded
     Please, verify this is what you really want


     Subspace diagonalization in iterative solution of the eigenvalue problem:
     a serial algorithm will be used


     G-vector sticks info
     --------------------
     sticks:   dense  smooth     PW     G-vecs:    dense   smooth      PW
     Sum         197     197     67                 1721     1721     369

     Using Slab Decomposition



     bravais-lattice index     =            3
     lattice parameter (alat)  =       6.5300  a.u.
     unit-cell volume          =     139.2225 (a.u.)^3
     number of atoms/cell      =            1
     number of atomic types    =            1
     number of electrons       =         1.00
     number of Kohn-Sham states=            5
     kinetic-energy cutoff     =      20.0000  Ry
     charge density cutoff     =      80.0000  Ry
     scf convergence threshold =      1.0E-08
     mixing beta               =       0.7000
     number of iterations used =            8  plain     mixing
     Exchange-correlation= PZ
                           (   1   1   0   0   0   0   0)

     celldm(1)=   6.530000  celldm(2)=   0.000000  celldm(3)=   0.000000
     celldm(4)=   0.000000  celldm(5)=   0.000000  celldm(6)=   0.000000

     crystal axes: (cart. coord. in units of alat)
               a(1) = (   0.500000   0.500000   0.500000 )  
               a(2) = (  -0.500000   0.500000   0.500000 )  
               a(3) = (  -0.500000  -0.500000   0.500000 )  

     reciprocal axes: (cart. coord. in units 2 pi/alat)
               b(1) = (  1.000000  0.000000  1.000000 )  
               b(2) = ( -1.000000  1.000000  0.000000 )  
               b(3) = (  0.000000 -1.000000  1.000000 )  


     PseudoPot. # 1 for Li read from file:
     ./pseudopot/Li.pbe-mt_fhi.UPF
     MD5 check sum: 3419f5616d131090147e867976aae79b
     Pseudo is Norm-conserving + core correction, Zval =  1.0
     Generated using FHI98PP, converted with fhi2upf.x v.5.0.2
     Using radial grid of  433 points,  3 beta functions with: 
                l(1) =   0
                l(2) =   1
                l(3) =   3

     atomic species   valence    mass     pseudopotential
     Li                1.00     6.94000     Li( 1.00)

     48 Sym. Ops., with inversion, found



   Cartesian axes

     site n.     atom                  positions (alat units)
         1        Li     tau(   1) = (   0.0000000   0.0000000   0.0000000  )

     number of k points=    44  Methfessel-Paxton smearing, width (Ry)=  0.0100
                       cart. coord. in units 2pi/alat
        k(    1) = (   0.0000000   0.0000000   0.1000000), wk =   0.0120000
        k(    2) = (   0.0000000  -0.1000000   0.2000000), wk =   0.0480000
        k(    3) = (   0.0000000  -0.2000000   0.3000000), wk =   0.0480000
        k(    4) = (   0.0000000  -0.3000000   0.4000000), wk =   0.0480000
        k(    5) = (   0.0000000  -0.4000000   0.5000000), wk =   0.0480000
        k(    6) = (  -0.1000000   0.1000000   0.1000000), wk =   0.0160000
        k(    7) = (  -0.1000000  -0.1000000   0.3000000), wk =   0.0480000
        k(    8) = (  -0.1000000  -0.2000000   0.4000000), wk =   0.0960000
        k(    9) = (  -0.1000000  -0.3000000   0.5000000), wk =   0.0960000
        k(   10) = (  -0.1000000   0.6000000  -0.4000000), wk =   0.0480000
        k(   11) = (  -0.2000000   0.2000000   0.1000000), wk =   0.0480000
        k(   12) = (  -0.2000000  -0.2000000   0.5000000), wk =   0.0480000
        k(   13) = (  -0.2000000   0.7000000  -0.4000000), wk =   0.0960000
        k(   14) = (  -0.3000000   0.3000000   0.1000000), wk =   0.0480000
        k(   15) = (  -0.3000000   0.2000000   0.2000000), wk =   0.0480000
        k(   16) = (  -0.3000000   0.7000000  -0.3000000), wk =   0.0160000
        k(   17) = (  -0.4000000   0.4000000   0.1000000), wk =   0.0480000
        k(   18) = (  -0.4000000   0.3000000   0.2000000), wk =   0.0960000
        k(   19) = (   0.5000000  -0.5000000   0.1000000), wk =   0.0240000
        k(   20) = (   0.5000000  -0.6000000   0.2000000), wk =   0.0960000
        k(   21) = (   0.5000000  -0.7000000   0.3000000), wk =   0.0480000
        k(   22) = (   0.4000000  -0.6000000   0.3000000), wk =   0.0480000
        k(   23) = (   0.0000000   0.0000000   0.3000000), wk =   0.0120000
        k(   24) = (   0.0000000  -0.1000000   0.4000000), wk =   0.0480000
        k(   25) = (   0.0000000  -0.2000000   0.5000000), wk =   0.0480000
        k(   26) = (   0.0000000  -0.3000000   0.6000000), wk =   0.0480000
        k(   27) = (  -0.1000000  -0.1000000   0.5000000), wk =   0.0480000
        k(   28) = (  -0.1000000  -0.2000000   0.6000000), wk =   0.0960000
        k(   29) = (  -0.1000000   0.7000000  -0.3000000), wk =   0.0480000
        k(   30) = (  -0.2000000   0.8000000  -0.3000000), wk =   0.0480000
        k(   31) = (  -0.3000000   0.3000000   0.3000000), wk =   0.0160000
        k(   32) = (   0.6000000  -0.6000000   0.3000000), wk =   0.0480000
        k(   33) = (   0.5000000  -0.5000000   0.3000000), wk =   0.0240000
        k(   34) = (   0.5000000  -0.6000000   0.4000000), wk =   0.0480000
        k(   35) = (   0.0000000   0.0000000   0.5000000), wk =   0.0120000
        k(   36) = (   0.0000000  -0.1000000   0.6000000), wk =   0.0480000
        k(   37) = (   0.0000000  -0.2000000   0.7000000), wk =   0.0480000
        k(   38) = (  -0.1000000  -0.1000000   0.7000000), wk =   0.0480000
        k(   39) = (  -0.1000000   0.8000000  -0.2000000), wk =   0.0480000
        k(   40) = (   0.5000000  -0.5000000   0.5000000), wk =   0.0040000
        k(   41) = (   0.0000000   0.0000000   0.7000000), wk =   0.0120000
        k(   42) = (   0.0000000  -0.1000000   0.8000000), wk =   0.0480000
        k(   43) = (  -0.1000000   0.9000000  -0.1000000), wk =   0.0160000
        k(   44) = (   0.0000000   0.0000000   0.9000000), wk =   0.0120000

     Dense  grid:     1721 G-vectors     FFT dimensions: (  18,  18,  18)

     Estimated max dynamical RAM per process >       2.23 MB

     Initial potential from superposition of free atoms

     starting charge       0.9960, renormalised to       1.0000
     Starting wfcs are   16 randomized atomic wfcs

     total cpu time spent up to now is        0.1 secs

     Self-consistent Calculation

     iteration #  1     ecut=    20.00 Ry     beta= 0.70
     Davidson diagonalization with overlap
     ethr =  1.00E-02,  avg # of iterations =  4.6

     Threshold (ethr) on eigenvalues was too large:
     Diagonalizing with lowered threshold

     Davidson diagonalization with overlap
     ethr =  1.72E-05,  avg # of iterations =  3.9

     total cpu time spent up to now is        0.3 secs

     total energy              =      -0.68891468 Ry
     estimated scf accuracy    <       0.00017102 Ry

     iteration #  2     ecut=    20.00 Ry     beta= 0.70
     Davidson diagonalization with overlap
     ethr =  1.71E-05,  avg # of iterations =  1.0

     total cpu time spent up to now is        0.3 secs

     total energy              =      -0.68891263 Ry
     estimated scf accuracy    <       0.00001494 Ry

     iteration #  3     ecut=    20.00 Ry     beta= 0.70
     Davidson diagonalization with overlap
     ethr =  1.49E-06,  avg # of iterations =  1.2

     total cpu time spent up to now is        0.4 secs

     End of self-consistent calculation

          k = 0.0000 0.0000 0.1000 (   209 PWs)   bands (ev):

    -3.1218  14.1347  14.1348  14.4050  18.2995

          k = 0.0000-0.1000 0.2000 (   207 PWs)   bands (ev):

    -2.7403  11.9858  12.8418  13.8915  16.6119

          k = 0.0000-0.2000 0.3000 (   208 PWs)   bands (ev):

    -1.9800   8.9123  11.5665  13.1061  15.8775

          k = 0.0000-0.3000 0.4000 (   207 PWs)   bands (ev):

    -0.8684   6.0768  10.6589  12.4120  14.8937

          k = 0.0000-0.4000 0.5000 (   204 PWs)   bands (ev):

     0.3772   3.9422  10.1953  12.0299  14.3991

          k =-0.1000 0.1000 0.1000 (   207 PWs)   bands (ev):

    -2.9314  13.1589  13.5356  13.5357  17.5693

          k =-0.1000-0.1000 0.3000 (   207 PWs)   bands (ev):

    -2.1670  10.2919  10.8220  13.2253  15.7440

          k =-0.1000-0.2000 0.4000 (   207 PWs)   bands (ev):

    -1.2185   7.5048   9.6265  12.4742  15.7386

          k =-0.1000-0.3000 0.5000 (   211 PWs)   bands (ev):

     0.0397   4.9711   8.9595  11.9087  15.7871

          k =-0.1000 0.6000-0.4000 (   212 PWs)   bands (ev):

     0.9743   3.5996   8.7365  11.7070  15.7258

          k =-0.2000 0.2000 0.1000 (   205 PWs)   bands (ev):

    -2.3604  10.5005  12.0138  12.3708  17.0496

          k =-0.2000-0.2000 0.5000 (   214 PWs)   bands (ev):

    -0.0883   5.8677   7.7898  12.0053  15.9866

          k =-0.2000 0.7000-0.4000 (   211 PWs)   bands (ev):

     1.2734   3.9651   7.0841  11.7173  16.4882

          k =-0.3000 0.3000 0.1000 (   205 PWs)   bands (ev):

    -1.4172   7.4551  11.0325  11.3413  16.3491

          k =-0.3000 0.2000 0.2000 (   206 PWs)   bands (ev):

    -1.6004   8.7682   9.7241  11.1540  17.8617

          k =-0.3000 0.7000-0.3000 (   212 PWs)   bands (ev):

     2.6986   2.6986   6.3371  11.6542  17.7676

          k =-0.4000 0.4000 0.1000 (   205 PWs)   bands (ev):

    -0.1735   4.8858  10.4171  10.6815  15.7843

          k =-0.4000 0.3000 0.2000 (   206 PWs)   bands (ev):

    -0.4770   6.1693   8.6269  10.4523  17.9679

          k = 0.5000-0.5000 0.1000 (   204 PWs)   bands (ev):

     0.7287   3.5352  10.2082  10.4566  15.5802

          k = 0.5000-0.6000 0.2000 (   208 PWs)   bands (ev):

     0.8324   4.0074   8.1550  10.0918  17.8275

          k = 0.5000-0.7000 0.3000 (   210 PWs)   bands (ev):

     0.8149   4.6714   6.9167  10.0270  19.3553

          k = 0.4000-0.6000 0.3000 (   214 PWs)   bands (ev):

     1.9660   3.3349   6.4509   9.8825  19.4258

          k = 0.0000 0.0000 0.3000 (   209 PWs)   bands (ev):

    -2.3551  11.4182  11.4182  13.3784  14.2785

          k = 0.0000-0.1000 0.4000 (   210 PWs)   bands (ev):

    -1.5865   9.0350  10.0862  12.8259  13.7594

          k = 0.0000-0.2000 0.5000 (   212 PWs)   bands (ev):

    -0.4569   6.3033   9.1534  12.2066  14.5433

          k = 0.0000-0.3000 0.6000 (   209 PWs)   bands (ev):

     0.8399   4.1498   8.6798  11.8732  15.5561

          k =-0.1000-0.1000 0.5000 (   213 PWs)   bands (ev):

    -0.6238   7.4629   8.4303  12.8529  12.9996

          k =-0.1000-0.2000 0.6000 (   213 PWs)   bands (ev):

     0.6725   5.2274   7.5935  12.4059  13.9344

          k =-0.1000 0.7000-0.3000 (   212 PWs)   bands (ev):

     1.7086   3.8102   7.3505  12.2315  14.8309

          k =-0.2000 0.8000-0.3000 (   213 PWs)   bands (ev):

     2.0967   3.9051   6.4566  13.0001  14.1392

          k =-0.3000 0.3000 0.3000 (   210 PWs)   bands (ev):

    -0.6533   7.6015   7.6015   9.6801  19.4645

          k = 0.6000-0.6000 0.3000 (   208 PWs)   bands (ev):

     0.6412   5.1313   6.8872   9.1595  20.2560

          k = 0.5000-0.5000 0.3000 (   210 PWs)   bands (ev):

     1.7209   3.6324   6.6472   9.0028  20.4436

          k = 0.5000-0.6000 0.4000 (   212 PWs)   bands (ev):

     2.0887   3.9437   5.4787   8.7690  21.5943

          k = 0.0000 0.0000 0.5000 (   209 PWs)   bands (ev):

    -0.8009   8.7310   8.7310  11.2592  12.6709

          k = 0.0000-0.1000 0.6000 (   214 PWs)   bands (ev):

     0.3607   6.7339   7.7881  11.0121  12.7256

          k = 0.0000-0.2000 0.7000 (   215 PWs)   bands (ev):

     1.7510   4.6109   7.3101  11.1694  13.6779

          k =-0.1000-0.1000 0.7000 (   214 PWs)   bands (ev):

     1.7023   5.5234   6.7012  11.0540  12.6488

          k =-0.1000 0.8000-0.2000 (   215 PWs)   bands (ev):

     2.9189   4.1737   6.3511  11.4962  13.1783

          k = 0.5000-0.5000 0.5000 (   216 PWs)   bands (ev):

     3.6999   3.6999   3.6999   8.4415  23.6415

          k = 0.0000 0.0000 0.7000 (   212 PWs)   bands (ev):

     1.5673   6.8412   6.8412   9.2458  12.2110

          k = 0.0000-0.1000 0.8000 (   218 PWs)   bands (ev):

     3.0688   5.3470   6.3613   9.5463  11.6295

          k =-0.1000 0.9000-0.1000 (   218 PWs)   bands (ev):

     4.5451   4.5451   5.8866  10.0695  10.0695

          k = 0.0000 0.0000 0.9000 (   228 PWs)   bands (ev):

     4.6571   5.8803   5.8803   8.2390   9.3771

     the Fermi energy is     0.4073 ev

!    total energy              =      -0.68891268 Ry
     estimated scf accuracy    <          3.3E-10 Ry
     smearing contrib. (-TS)   =      -0.00006417 Ry
     internal energy E=F+TS    =      -0.68884851 Ry

     The total energy is F=E-TS. E is the sum of the following terms:
     one-electron contribution =       0.40757547 Ry
     hartree contribution      =       0.00096318 Ry
     xc contribution           =      -0.54007726 Ry
     ewald contribution        =      -0.55730990 Ry

     convergence has been achieved in   3 iterations

     Forces acting on atoms (cartesian axes, Ry/au):

     atom    1 type  1   force =     0.00000000    0.00000000    0.00000000

     Total force =     0.000000     Total SCF correction =     0.000000


     Computing stress (Cartesian axis) and pressure

          total   stress  (Ry/bohr**3)                   (kbar)     P=      -13.18
  -0.00008957  -0.00000000   0.00000000          -13.18       -0.00        0.00
  -0.00000000  -0.00008957  -0.00000000           -0.00      -13.18       -0.00
   0.00000000  -0.00000000  -0.00008957            0.00       -0.00      -13.18


     Writing all to output data dir ./QE-outdir/li.save/ :
     XML data file, charge density, pseudopotentials, collected wavefunctions

     init_run     :      0.06s CPU      0.08s WALL (       1 calls)
     electrons    :      0.22s CPU      0.31s WALL (       1 calls)
     forces       :      0.00s CPU      0.00s WALL (       1 calls)
     stress       :      0.02s CPU      0.02s WALL (       1 calls)

     Called by init_run:
     wfcinit      :      0.05s CPU      0.06s WALL (       1 calls)
     potinit      :      0.00s CPU      0.00s WALL (       1 calls)
     hinit0       :      0.01s CPU      0.01s WALL (       1 calls)

     Called by electrons:
     c_bands      :      0.19s CPU      0.28s WALL (       4 calls)
     sum_band     :      0.03s CPU      0.03s WALL (       4 calls)
     v_of_rho     :      0.00s CPU      0.00s WALL (       4 calls)
     mix_rho      :      0.00s CPU      0.00s WALL (       4 calls)

     Called by c_bands:
     init_us_2    :      0.01s CPU      0.01s WALL (     484 calls)
     cegterg      :      0.18s CPU      0.27s WALL (     176 calls)

     Called by *egterg:
     cdiaghg      :      0.07s CPU      0.17s WALL (     603 calls)
     h_psi        :      0.15s CPU      0.15s WALL (     691 calls)
     g_psi        :      0.00s CPU      0.00s WALL (     471 calls)

     Called by h_psi:
     h_psi:calbec :      0.00s CPU      0.00s WALL (     691 calls)
     vloc_psi     :      0.14s CPU      0.14s WALL (     691 calls)
                                        0.00s GPU  (     691 calls)
     add_vuspsi   :      0.00s CPU      0.00s WALL (     691 calls)

     General routines
     calbec       :      0.01s CPU      0.01s WALL (    1439 calls)
     fft          :      0.00s CPU      0.00s WALL (      20 calls)
     ffts         :      0.00s CPU      0.00s WALL (       4 calls)
     fftw         :      0.15s CPU      0.15s WALL (    7296 calls)

     Parallel routines

     PWSCF        :      0.31s CPU      0.42s WALL


   This run was terminated on:  23:31: 2  31Jan2026            

=------------------------------------------------------------------------------=
   JOB DONE.
=------------------------------------------------------------------------------=
