
     Program PWSCF v.7.5 starts on 31Jan2026 at 23:31: 8 

     This program is part of the open-source Quantum ESPRESSO suite
     for quantum simulation of materials; please cite
         "P. Giannozzi et al., J. Phys.:Condens. Matter 21 395502 (2009);
         "P. Giannozzi et al., J. Phys.:Condens. Matter 29 465901 (2017);
         "P. Giannozzi et al., J. Chem. Phys. 152 154105 (2020);
          URL http://www.quantum-espresso.org", 
     in publications or presentations arising from this work. More details at
     http://www.quantum-espresso.org/quote

     Parallel version (MPI), running on     1 processors

     MPI processes distributed on     1 nodes
     0 MiB available memory on the printing compute node when the environment starts

     Waiting for input...
     Reading input from standard input
     Message from routine read_cards :
     DEPRECATED: no units specified in ATOMIC_POSITIONS card
     Message from routine read_cards :
     ATOMIC_POSITIONS: units set to alat

     Current dimensions of program PWSCF are:
     Max number of different atomic species (ntypx) = 10
     Max number of k-points (npk) =  40000
     Max angular momentum in pseudopotentials (lmaxx) =  4
     file Li.pbe-mt_fhi.UPF: wavefunction(s)  2p 4f renormalized

     IMPORTANT: XC functional enforced from input :
     Exchange-correlation= PZ
                           (   1   1   0   0   0   0   0)
     Any further DFT definition will be discarded
     Please, verify this is what you really want


     Subspace diagonalization in iterative solution of the eigenvalue problem:
     a serial algorithm will be used


     G-vector sticks info
     --------------------
     sticks:   dense  smooth     PW     G-vecs:    dense   smooth      PW
     Sum         205     205     69                 1865     1865     381

     Using Slab Decomposition



     bravais-lattice index     =            3
     lattice parameter (alat)  =       6.6900  a.u.
     unit-cell volume          =     149.7092 (a.u.)^3
     number of atoms/cell      =            1
     number of atomic types    =            1
     number of electrons       =         1.00
     number of Kohn-Sham states=            5
     kinetic-energy cutoff     =      20.0000  Ry
     charge density cutoff     =      80.0000  Ry
     scf convergence threshold =      1.0E-08
     mixing beta               =       0.7000
     number of iterations used =            8  plain     mixing
     Exchange-correlation= PZ
                           (   1   1   0   0   0   0   0)

     celldm(1)=   6.690000  celldm(2)=   0.000000  celldm(3)=   0.000000
     celldm(4)=   0.000000  celldm(5)=   0.000000  celldm(6)=   0.000000

     crystal axes: (cart. coord. in units of alat)
               a(1) = (   0.500000   0.500000   0.500000 )  
               a(2) = (  -0.500000   0.500000   0.500000 )  
               a(3) = (  -0.500000  -0.500000   0.500000 )  

     reciprocal axes: (cart. coord. in units 2 pi/alat)
               b(1) = (  1.000000  0.000000  1.000000 )  
               b(2) = ( -1.000000  1.000000  0.000000 )  
               b(3) = (  0.000000 -1.000000  1.000000 )  


     PseudoPot. # 1 for Li read from file:
     ./pseudopot/Li.pbe-mt_fhi.UPF
     MD5 check sum: 3419f5616d131090147e867976aae79b
     Pseudo is Norm-conserving + core correction, Zval =  1.0
     Generated using FHI98PP, converted with fhi2upf.x v.5.0.2
     Using radial grid of  433 points,  3 beta functions with: 
                l(1) =   0
                l(2) =   1
                l(3) =   3

     atomic species   valence    mass     pseudopotential
     Li                1.00     6.94000     Li( 1.00)

     48 Sym. Ops., with inversion, found



   Cartesian axes

     site n.     atom                  positions (alat units)
         1        Li     tau(   1) = (   0.0000000   0.0000000   0.0000000  )

     number of k points=    44  Methfessel-Paxton smearing, width (Ry)=  0.0100
                       cart. coord. in units 2pi/alat
        k(    1) = (   0.0000000   0.0000000   0.1000000), wk =   0.0120000
        k(    2) = (   0.0000000  -0.1000000   0.2000000), wk =   0.0480000
        k(    3) = (   0.0000000  -0.2000000   0.3000000), wk =   0.0480000
        k(    4) = (   0.0000000  -0.3000000   0.4000000), wk =   0.0480000
        k(    5) = (   0.0000000  -0.4000000   0.5000000), wk =   0.0480000
        k(    6) = (  -0.1000000   0.1000000   0.1000000), wk =   0.0160000
        k(    7) = (  -0.1000000  -0.1000000   0.3000000), wk =   0.0480000
        k(    8) = (  -0.1000000  -0.2000000   0.4000000), wk =   0.0960000
        k(    9) = (  -0.1000000  -0.3000000   0.5000000), wk =   0.0960000
        k(   10) = (  -0.1000000   0.6000000  -0.4000000), wk =   0.0480000
        k(   11) = (  -0.2000000   0.2000000   0.1000000), wk =   0.0480000
        k(   12) = (  -0.2000000  -0.2000000   0.5000000), wk =   0.0480000
        k(   13) = (  -0.2000000   0.7000000  -0.4000000), wk =   0.0960000
        k(   14) = (  -0.3000000   0.3000000   0.1000000), wk =   0.0480000
        k(   15) = (  -0.3000000   0.2000000   0.2000000), wk =   0.0480000
        k(   16) = (  -0.3000000   0.7000000  -0.3000000), wk =   0.0160000
        k(   17) = (  -0.4000000   0.4000000   0.1000000), wk =   0.0480000
        k(   18) = (  -0.4000000   0.3000000   0.2000000), wk =   0.0960000
        k(   19) = (   0.5000000  -0.5000000   0.1000000), wk =   0.0240000
        k(   20) = (   0.5000000  -0.6000000   0.2000000), wk =   0.0960000
        k(   21) = (   0.5000000  -0.7000000   0.3000000), wk =   0.0480000
        k(   22) = (   0.4000000  -0.6000000   0.3000000), wk =   0.0480000
        k(   23) = (   0.0000000   0.0000000   0.3000000), wk =   0.0120000
        k(   24) = (   0.0000000  -0.1000000   0.4000000), wk =   0.0480000
        k(   25) = (   0.0000000  -0.2000000   0.5000000), wk =   0.0480000
        k(   26) = (   0.0000000  -0.3000000   0.6000000), wk =   0.0480000
        k(   27) = (  -0.1000000  -0.1000000   0.5000000), wk =   0.0480000
        k(   28) = (  -0.1000000  -0.2000000   0.6000000), wk =   0.0960000
        k(   29) = (  -0.1000000   0.7000000  -0.3000000), wk =   0.0480000
        k(   30) = (  -0.2000000   0.8000000  -0.3000000), wk =   0.0480000
        k(   31) = (  -0.3000000   0.3000000   0.3000000), wk =   0.0160000
        k(   32) = (   0.6000000  -0.6000000   0.3000000), wk =   0.0480000
        k(   33) = (   0.5000000  -0.5000000   0.3000000), wk =   0.0240000
        k(   34) = (   0.5000000  -0.6000000   0.4000000), wk =   0.0480000
        k(   35) = (   0.0000000   0.0000000   0.5000000), wk =   0.0120000
        k(   36) = (   0.0000000  -0.1000000   0.6000000), wk =   0.0480000
        k(   37) = (   0.0000000  -0.2000000   0.7000000), wk =   0.0480000
        k(   38) = (  -0.1000000  -0.1000000   0.7000000), wk =   0.0480000
        k(   39) = (  -0.1000000   0.8000000  -0.2000000), wk =   0.0480000
        k(   40) = (   0.5000000  -0.5000000   0.5000000), wk =   0.0040000
        k(   41) = (   0.0000000   0.0000000   0.7000000), wk =   0.0120000
        k(   42) = (   0.0000000  -0.1000000   0.8000000), wk =   0.0480000
        k(   43) = (  -0.1000000   0.9000000  -0.1000000), wk =   0.0160000
        k(   44) = (   0.0000000   0.0000000   0.9000000), wk =   0.0120000

     Dense  grid:     1865 G-vectors     FFT dimensions: (  18,  18,  18)

     Estimated max dynamical RAM per process >       2.35 MB

     Initial potential from superposition of free atoms

     starting charge       0.9960, renormalised to       1.0000
     Starting wfcs are   16 randomized atomic wfcs

     total cpu time spent up to now is        0.1 secs

     Self-consistent Calculation

     iteration #  1     ecut=    20.00 Ry     beta= 0.70
     Davidson diagonalization with overlap
     ethr =  1.00E-02,  avg # of iterations =  4.7

     Threshold (ethr) on eigenvalues was too large:
     Diagonalizing with lowered threshold

     Davidson diagonalization with overlap
     ethr =  1.52E-05,  avg # of iterations =  4.3

     total cpu time spent up to now is        0.3 secs

     total energy              =      -0.68773561 Ry
     estimated scf accuracy    <       0.00015162 Ry

     iteration #  2     ecut=    20.00 Ry     beta= 0.70
     Davidson diagonalization with overlap
     ethr =  1.52E-05,  avg # of iterations =  1.0

     total cpu time spent up to now is        0.4 secs

     total energy              =      -0.68773411 Ry
     estimated scf accuracy    <       0.00001338 Ry

     iteration #  3     ecut=    20.00 Ry     beta= 0.70
     Davidson diagonalization with overlap
     ethr =  1.34E-06,  avg # of iterations =  1.1

     total cpu time spent up to now is        0.4 secs

     End of self-consistent calculation

          k = 0.0000 0.0000 0.1000 (   225 PWs)   bands (ev):

    -3.2032  13.2623  13.2623  13.5094  17.3248

          k = 0.0000-0.1000 0.2000 (   221 PWs)   bands (ev):

    -2.8326  11.2341  12.0465  13.0306  15.6918

          k = 0.0000-0.2000 0.3000 (   223 PWs)   bands (ev):

    -2.0943   8.3112  10.8386  12.2973  14.9994

          k = 0.0000-0.3000 0.4000 (   229 PWs)   bands (ev):

    -1.0134   5.5967   9.9772  11.6442  14.0626

          k = 0.0000-0.4000 0.5000 (   228 PWs)   bands (ev):

     0.2098   3.5304   9.5365  11.2840  13.5915

          k =-0.1000 0.1000 0.1000 (   222 PWs)   bands (ev):

    -3.0182  12.3265  12.7098  12.7099  16.5959

          k =-0.1000-0.1000 0.3000 (   220 PWs)   bands (ev):

    -2.2761   9.6502  10.1083  12.4047  14.8647

          k =-0.1000-0.2000 0.4000 (   229 PWs)   bands (ev):

    -1.3557   6.9820   8.9761  11.7019  14.8461

          k =-0.1000-0.3000 0.5000 (   225 PWs)   bands (ev):

    -0.1311   4.5461   8.3428  11.1702  14.8713

          k =-0.1000 0.6000-0.4000 (   221 PWs)   bands (ev):

     0.7935   3.2070   8.1308  10.9799  14.8084

          k =-0.2000 0.2000 0.1000 (   222 PWs)   bands (ev):

    -2.4636   9.8287  11.2437  11.6208  16.0881

          k =-0.2000-0.2000 0.5000 (   226 PWs)   bands (ev):

    -0.2601   5.4500   7.1821  11.2602  15.0933

          k =-0.2000 0.7000-0.4000 (   225 PWs)   bands (ev):

     1.0645   3.6170   6.5034  10.9866  15.5535

          k =-0.3000 0.3000 0.1000 (   229 PWs)   bands (ev):

    -1.5474   6.9227  10.3061  10.6497  15.4274

          k =-0.3000 0.2000 0.2000 (   222 PWs)   bands (ev):

    -1.7257   8.2081   9.0633  10.4303  16.8346

          k =-0.3000 0.7000-0.3000 (   225 PWs)   bands (ev):

     2.4346   2.4346   5.7540  10.9247  16.7896

          k =-0.4000 0.4000 0.1000 (   228 PWs)   bands (ev):

    -0.3351   4.4540   9.7190  10.0252  14.8942

          k =-0.4000 0.3000 0.2000 (   227 PWs)   bands (ev):

    -0.6354   5.7152   8.0279   9.7500  16.9376

          k = 0.5000-0.5000 0.1000 (   226 PWs)   bands (ev):

     0.5596   3.1339   9.5199   9.8121  14.7011

          k = 0.5000-0.6000 0.2000 (   227 PWs)   bands (ev):

     0.6439   3.6256   7.5827   9.4011  16.8069

          k = 0.5000-0.7000 0.3000 (   227 PWs)   bands (ev):

     0.6163   4.3126   6.3613   9.3295  18.1529

          k = 0.4000-0.6000 0.3000 (   226 PWs)   bands (ev):

     1.7377   3.0236   5.9112   9.1865  18.3141

          k = 0.0000 0.0000 0.3000 (   217 PWs)   bands (ev):

    -2.4590  10.7053  10.7053  12.5082  13.4937

          k = 0.0000-0.1000 0.4000 (   223 PWs)   bands (ev):

    -1.7138   8.4390   9.4419  12.0005  12.9644

          k = 0.0000-0.2000 0.5000 (   224 PWs)   bands (ev):

    -0.6180   5.8261   8.5560  11.4136  13.7004

          k = 0.0000-0.3000 0.6000 (   224 PWs)   bands (ev):

     0.6503   3.7455   8.1055  11.0941  14.6547

          k =-0.1000-0.1000 0.5000 (   231 PWs)   bands (ev):

    -0.7819   6.9631   7.8357  12.0040  12.2585

          k =-0.1000-0.2000 0.6000 (   227 PWs)   bands (ev):

     0.4749   4.8169   7.0351  11.6092  13.1216

          k =-0.1000 0.7000-0.3000 (   231 PWs)   bands (ev):

     1.4920   3.4366   6.8040  11.4428  13.9711

          k =-0.2000 0.8000-0.3000 (   229 PWs)   bands (ev):

     1.8517   3.5822   5.9001  12.1652  13.3391

          k =-0.3000 0.3000 0.3000 (   234 PWs)   bands (ev):

    -0.8074   7.1001   7.1001   8.9379  18.3556

          k = 0.6000-0.6000 0.3000 (   231 PWs)   bands (ev):

     0.4476   4.7355   6.4211   8.4224  19.1064

          k = 0.5000-0.5000 0.3000 (   228 PWs)   bands (ev):

     1.5045   3.2816   6.1930   8.2678  19.2910

          k = 0.5000-0.6000 0.4000 (   228 PWs)   bands (ev):

     1.8456   3.6203   5.0601   8.0241  20.3638

          k = 0.0000 0.0000 0.5000 (   233 PWs)   bands (ev):

    -0.9549   8.1556   8.1556  10.6173  11.7840

          k = 0.0000-0.1000 0.6000 (   228 PWs)   bands (ev):

     0.1677   6.2532   7.2599  10.3525  11.8473

          k = 0.0000-0.2000 0.7000 (   225 PWs)   bands (ev):

     1.5180   4.2106   6.8056  10.4405  12.8149

          k =-0.1000-0.1000 0.7000 (   227 PWs)   bands (ev):

     1.4618   5.1186   6.1933  10.4070  11.7699

          k =-0.1000 0.8000-0.2000 (   226 PWs)   bands (ev):

     2.6433   3.8170   5.8520  10.7941  12.4253

          k = 0.5000-0.5000 0.5000 (   216 PWs)   bands (ev):

     3.3887   3.3887   3.3887   7.6740  22.3101

          k = 0.0000 0.0000 0.7000 (   229 PWs)   bands (ev):

     1.3275   6.3596   6.3596   8.6991  11.3304

          k = 0.0000-0.1000 0.8000 (   232 PWs)   bands (ev):

     2.7734   4.9336   5.9033   8.9658  10.9027

          k =-0.1000 0.9000-0.1000 (   236 PWs)   bands (ev):

     4.1877   4.1877   5.4263   9.4696   9.4696

          k = 0.0000 0.0000 0.9000 (   236 PWs)   bands (ev):

     4.2867   5.4463   5.4463   7.7399   8.8072

     the Fermi energy is     0.2298 ev

!    total energy              =      -0.68773416 Ry
     estimated scf accuracy    <          5.2E-10 Ry
     smearing contrib. (-TS)   =      -0.00004166 Ry
     internal energy E=F+TS    =      -0.68769250 Ry

     The total energy is F=E-TS. E is the sum of the following terms:
     one-electron contribution =       0.38627148 Ry
     hartree contribution      =       0.00084249 Ry
     xc contribution           =      -0.53082536 Ry
     ewald contribution        =      -0.54398111 Ry

     convergence has been achieved in   3 iterations

     Forces acting on atoms (cartesian axes, Ry/au):

     atom    1 type  1   force =     0.00000000    0.00000000    0.00000000

     Total force =     0.000000     Total SCF correction =     0.000000


     Computing stress (Cartesian axis) and pressure

          total   stress  (Ry/bohr**3)                   (kbar)     P=      -19.93
  -0.00013549   0.00000000  -0.00000000          -19.93        0.00       -0.00
   0.00000000  -0.00013549   0.00000000            0.00      -19.93        0.00
  -0.00000000   0.00000000  -0.00013549           -0.00        0.00      -19.93


     Writing all to output data dir ./QE-outdir/li.save/ :
     XML data file, charge density, pseudopotentials, collected wavefunctions

     init_run     :      0.06s CPU      0.08s WALL (       1 calls)
     electrons    :      0.23s CPU      0.32s WALL (       1 calls)
     forces       :      0.00s CPU      0.00s WALL (       1 calls)
     stress       :      0.03s CPU      0.03s WALL (       1 calls)

     Called by init_run:
     wfcinit      :      0.05s CPU      0.07s WALL (       1 calls)
     potinit      :      0.00s CPU      0.00s WALL (       1 calls)
     hinit0       :      0.01s CPU      0.01s WALL (       1 calls)

     Called by electrons:
     c_bands      :      0.20s CPU      0.29s WALL (       4 calls)
     sum_band     :      0.03s CPU      0.03s WALL (       4 calls)
     v_of_rho     :      0.00s CPU      0.00s WALL (       4 calls)
     mix_rho      :      0.00s CPU      0.00s WALL (       4 calls)

     Called by c_bands:
     init_us_2    :      0.01s CPU      0.01s WALL (     484 calls)
     cegterg      :      0.19s CPU      0.28s WALL (     176 calls)

     Called by *egterg:
     cdiaghg      :      0.07s CPU      0.17s WALL (     623 calls)
     h_psi        :      0.15s CPU      0.16s WALL (     711 calls)
     g_psi        :      0.00s CPU      0.00s WALL (     491 calls)

     Called by h_psi:
     h_psi:calbec :      0.00s CPU      0.00s WALL (     711 calls)
     vloc_psi     :      0.15s CPU      0.15s WALL (     711 calls)
                                        0.00s GPU  (     711 calls)
     add_vuspsi   :      0.00s CPU      0.00s WALL (     711 calls)

     General routines
     calbec       :      0.01s CPU      0.01s WALL (    1459 calls)
     fft          :      0.00s CPU      0.00s WALL (      20 calls)
     ffts         :      0.00s CPU      0.00s WALL (       4 calls)
     fftw         :      0.15s CPU      0.15s WALL (    7414 calls)

     Parallel routines

     PWSCF        :      0.33s CPU      0.44s WALL


   This run was terminated on:  23:31: 9  31Jan2026            

=------------------------------------------------------------------------------=
   JOB DONE.
=------------------------------------------------------------------------------=
