
     Program PWSCF v.7.5 starts on 31Jan2026 at 23:31: 3 

     This program is part of the open-source Quantum ESPRESSO suite
     for quantum simulation of materials; please cite
         "P. Giannozzi et al., J. Phys.:Condens. Matter 21 395502 (2009);
         "P. Giannozzi et al., J. Phys.:Condens. Matter 29 465901 (2017);
         "P. Giannozzi et al., J. Chem. Phys. 152 154105 (2020);
          URL http://www.quantum-espresso.org", 
     in publications or presentations arising from this work. More details at
     http://www.quantum-espresso.org/quote

     Parallel version (MPI), running on     1 processors

     MPI processes distributed on     1 nodes
     0 MiB available memory on the printing compute node when the environment starts

     Waiting for input...
     Reading input from standard input
     Message from routine read_cards :
     DEPRECATED: no units specified in ATOMIC_POSITIONS card
     Message from routine read_cards :
     ATOMIC_POSITIONS: units set to alat

     Current dimensions of program PWSCF are:
     Max number of different atomic species (ntypx) = 10
     Max number of k-points (npk) =  40000
     Max angular momentum in pseudopotentials (lmaxx) =  4
     file Li.pbe-mt_fhi.UPF: wavefunction(s)  2p 4f renormalized

     IMPORTANT: XC functional enforced from input :
     Exchange-correlation= PZ
                           (   1   1   0   0   0   0   0)
     Any further DFT definition will be discarded
     Please, verify this is what you really want


     Subspace diagonalization in iterative solution of the eigenvalue problem:
     a serial algorithm will be used


     G-vector sticks info
     --------------------
     sticks:   dense  smooth     PW     G-vecs:    dense   smooth      PW
     Sum         197     197     67                 1721     1721     369

     Using Slab Decomposition



     bravais-lattice index     =            3
     lattice parameter (alat)  =       6.5600  a.u.
     unit-cell volume          =     141.1502 (a.u.)^3
     number of atoms/cell      =            1
     number of atomic types    =            1
     number of electrons       =         1.00
     number of Kohn-Sham states=            5
     kinetic-energy cutoff     =      20.0000  Ry
     charge density cutoff     =      80.0000  Ry
     scf convergence threshold =      1.0E-08
     mixing beta               =       0.7000
     number of iterations used =            8  plain     mixing
     Exchange-correlation= PZ
                           (   1   1   0   0   0   0   0)

     celldm(1)=   6.560000  celldm(2)=   0.000000  celldm(3)=   0.000000
     celldm(4)=   0.000000  celldm(5)=   0.000000  celldm(6)=   0.000000

     crystal axes: (cart. coord. in units of alat)
               a(1) = (   0.500000   0.500000   0.500000 )  
               a(2) = (  -0.500000   0.500000   0.500000 )  
               a(3) = (  -0.500000  -0.500000   0.500000 )  

     reciprocal axes: (cart. coord. in units 2 pi/alat)
               b(1) = (  1.000000  0.000000  1.000000 )  
               b(2) = ( -1.000000  1.000000  0.000000 )  
               b(3) = (  0.000000 -1.000000  1.000000 )  


     PseudoPot. # 1 for Li read from file:
     ./pseudopot/Li.pbe-mt_fhi.UPF
     MD5 check sum: 3419f5616d131090147e867976aae79b
     Pseudo is Norm-conserving + core correction, Zval =  1.0
     Generated using FHI98PP, converted with fhi2upf.x v.5.0.2
     Using radial grid of  433 points,  3 beta functions with: 
                l(1) =   0
                l(2) =   1
                l(3) =   3

     atomic species   valence    mass     pseudopotential
     Li                1.00     6.94000     Li( 1.00)

     48 Sym. Ops., with inversion, found



   Cartesian axes

     site n.     atom                  positions (alat units)
         1        Li     tau(   1) = (   0.0000000   0.0000000   0.0000000  )

     number of k points=    44  Methfessel-Paxton smearing, width (Ry)=  0.0100
                       cart. coord. in units 2pi/alat
        k(    1) = (   0.0000000   0.0000000   0.1000000), wk =   0.0120000
        k(    2) = (   0.0000000  -0.1000000   0.2000000), wk =   0.0480000
        k(    3) = (   0.0000000  -0.2000000   0.3000000), wk =   0.0480000
        k(    4) = (   0.0000000  -0.3000000   0.4000000), wk =   0.0480000
        k(    5) = (   0.0000000  -0.4000000   0.5000000), wk =   0.0480000
        k(    6) = (  -0.1000000   0.1000000   0.1000000), wk =   0.0160000
        k(    7) = (  -0.1000000  -0.1000000   0.3000000), wk =   0.0480000
        k(    8) = (  -0.1000000  -0.2000000   0.4000000), wk =   0.0960000
        k(    9) = (  -0.1000000  -0.3000000   0.5000000), wk =   0.0960000
        k(   10) = (  -0.1000000   0.6000000  -0.4000000), wk =   0.0480000
        k(   11) = (  -0.2000000   0.2000000   0.1000000), wk =   0.0480000
        k(   12) = (  -0.2000000  -0.2000000   0.5000000), wk =   0.0480000
        k(   13) = (  -0.2000000   0.7000000  -0.4000000), wk =   0.0960000
        k(   14) = (  -0.3000000   0.3000000   0.1000000), wk =   0.0480000
        k(   15) = (  -0.3000000   0.2000000   0.2000000), wk =   0.0480000
        k(   16) = (  -0.3000000   0.7000000  -0.3000000), wk =   0.0160000
        k(   17) = (  -0.4000000   0.4000000   0.1000000), wk =   0.0480000
        k(   18) = (  -0.4000000   0.3000000   0.2000000), wk =   0.0960000
        k(   19) = (   0.5000000  -0.5000000   0.1000000), wk =   0.0240000
        k(   20) = (   0.5000000  -0.6000000   0.2000000), wk =   0.0960000
        k(   21) = (   0.5000000  -0.7000000   0.3000000), wk =   0.0480000
        k(   22) = (   0.4000000  -0.6000000   0.3000000), wk =   0.0480000
        k(   23) = (   0.0000000   0.0000000   0.3000000), wk =   0.0120000
        k(   24) = (   0.0000000  -0.1000000   0.4000000), wk =   0.0480000
        k(   25) = (   0.0000000  -0.2000000   0.5000000), wk =   0.0480000
        k(   26) = (   0.0000000  -0.3000000   0.6000000), wk =   0.0480000
        k(   27) = (  -0.1000000  -0.1000000   0.5000000), wk =   0.0480000
        k(   28) = (  -0.1000000  -0.2000000   0.6000000), wk =   0.0960000
        k(   29) = (  -0.1000000   0.7000000  -0.3000000), wk =   0.0480000
        k(   30) = (  -0.2000000   0.8000000  -0.3000000), wk =   0.0480000
        k(   31) = (  -0.3000000   0.3000000   0.3000000), wk =   0.0160000
        k(   32) = (   0.6000000  -0.6000000   0.3000000), wk =   0.0480000
        k(   33) = (   0.5000000  -0.5000000   0.3000000), wk =   0.0240000
        k(   34) = (   0.5000000  -0.6000000   0.4000000), wk =   0.0480000
        k(   35) = (   0.0000000   0.0000000   0.5000000), wk =   0.0120000
        k(   36) = (   0.0000000  -0.1000000   0.6000000), wk =   0.0480000
        k(   37) = (   0.0000000  -0.2000000   0.7000000), wk =   0.0480000
        k(   38) = (  -0.1000000  -0.1000000   0.7000000), wk =   0.0480000
        k(   39) = (  -0.1000000   0.8000000  -0.2000000), wk =   0.0480000
        k(   40) = (   0.5000000  -0.5000000   0.5000000), wk =   0.0040000
        k(   41) = (   0.0000000   0.0000000   0.7000000), wk =   0.0120000
        k(   42) = (   0.0000000  -0.1000000   0.8000000), wk =   0.0480000
        k(   43) = (  -0.1000000   0.9000000  -0.1000000), wk =   0.0160000
        k(   44) = (   0.0000000   0.0000000   0.9000000), wk =   0.0120000

     Dense  grid:     1721 G-vectors     FFT dimensions: (  18,  18,  18)

     Estimated max dynamical RAM per process >       2.24 MB

     Initial potential from superposition of free atoms

     starting charge       0.9960, renormalised to       1.0000
     Starting wfcs are   16 randomized atomic wfcs

     total cpu time spent up to now is        0.1 secs

     Self-consistent Calculation

     iteration #  1     ecut=    20.00 Ry     beta= 0.70
     Davidson diagonalization with overlap
     ethr =  1.00E-02,  avg # of iterations =  4.6

     Threshold (ethr) on eigenvalues was too large:
     Diagonalizing with lowered threshold

     Davidson diagonalization with overlap
     ethr =  1.67E-05,  avg # of iterations =  4.1

     total cpu time spent up to now is        0.3 secs

     total energy              =      -0.68873475 Ry
     estimated scf accuracy    <       0.00016673 Ry

     iteration #  2     ecut=    20.00 Ry     beta= 0.70
     Davidson diagonalization with overlap
     ethr =  1.67E-05,  avg # of iterations =  1.0

     total cpu time spent up to now is        0.3 secs

     total energy              =      -0.68873281 Ry
     estimated scf accuracy    <       0.00001460 Ry

     iteration #  3     ecut=    20.00 Ry     beta= 0.70
     Davidson diagonalization with overlap
     ethr =  1.46E-06,  avg # of iterations =  1.2

     total cpu time spent up to now is        0.4 secs

     End of self-consistent calculation

          k = 0.0000 0.0000 0.1000 (   213 PWs)   bands (ev):

    -3.1382  13.9658  13.9658  14.2318  18.1110

          k = 0.0000-0.1000 0.2000 (   210 PWs)   bands (ev):

    -2.7588  11.8405  12.6881  13.7251  16.4340

          k = 0.0000-0.2000 0.3000 (   211 PWs)   bands (ev):

    -2.0026   8.7961  11.4259  12.9497  15.7078

          k = 0.0000-0.3000 0.4000 (   210 PWs)   bands (ev):

    -0.8967   5.9838  10.5272  12.2635  14.7331

          k = 0.0000-0.4000 0.5000 (   209 PWs)   bands (ev):

     0.3447   3.8622  10.0680  11.8857  14.2430

          k =-0.1000 0.1000 0.1000 (   213 PWs)   bands (ev):

    -2.9489  12.9980  13.3755  13.3755  17.3809

          k =-0.1000-0.1000 0.3000 (   211 PWs)   bands (ev):

    -2.1886  10.1678  10.6836  13.0667  15.5739

          k =-0.1000-0.2000 0.4000 (   209 PWs)   bands (ev):

    -1.2454   7.4037   9.5008  12.3252  15.5658

          k =-0.1000-0.3000 0.5000 (   211 PWs)   bands (ev):

     0.0065   4.8888   8.8403  11.7662  15.6102

          k =-0.1000 0.6000-0.4000 (   214 PWs)   bands (ev):

     0.9392   3.5235   8.6194  11.5662  15.5485

          k =-0.2000 0.2000 0.1000 (   210 PWs)   bands (ev):

    -2.3809  10.3708  11.8643  12.2257  16.8636

          k =-0.2000-0.2000 0.5000 (   216 PWs)   bands (ev):

    -0.1217   5.7869   7.6720  11.8612  15.8140

          k =-0.2000 0.7000-0.4000 (   215 PWs)   bands (ev):

     1.2329   3.8978   6.9713  11.5759  16.3076

          k =-0.3000 0.3000 0.1000 (   210 PWs)   bands (ev):

    -1.4428   7.3520  10.8920  11.2076  16.1709

          k =-0.3000 0.2000 0.2000 (   210 PWs)   bands (ev):

    -1.6251   8.6599   9.5964  11.0139  17.6628

          k =-0.3000 0.7000-0.3000 (   212 PWs)   bands (ev):

     2.6475   2.6475   6.2240  11.5133  17.5787

          k =-0.4000 0.4000 0.1000 (   207 PWs)   bands (ev):

    -0.2049   4.8021  10.2820  10.5548  15.6125

          k =-0.4000 0.3000 0.2000 (   210 PWs)   bands (ev):

    -0.5079   6.0814   8.5110  10.3163  17.7688

          k = 0.5000-0.5000 0.1000 (   212 PWs)   bands (ev):

     0.6958   3.4573  10.0745  10.3319  15.4103

          k = 0.5000-0.6000 0.2000 (   210 PWs)   bands (ev):

     0.7959   3.9335   8.0444   9.9580  17.6305

          k = 0.5000-0.7000 0.3000 (   214 PWs)   bands (ev):

     0.7764   4.6018   6.8093   9.8917  19.1481

          k = 0.4000-0.6000 0.3000 (   214 PWs)   bands (ev):

     1.9218   3.2747   6.3466   9.7476  19.2111

          k = 0.0000 0.0000 0.3000 (   213 PWs)   bands (ev):

    -2.3757  11.2802  11.2802  13.2094  14.1268

          k = 0.0000-0.1000 0.4000 (   214 PWs)   bands (ev):

    -1.6116   8.9197   9.9614  12.6667  13.6054

          k = 0.0000-0.2000 0.5000 (   215 PWs)   bands (ev):

    -0.4883   6.2108   9.0379  12.0531  14.3802

          k = 0.0000-0.3000 0.6000 (   211 PWs)   bands (ev):

     0.8031   4.0714   8.5687  11.7226  15.3819

          k =-0.1000-0.1000 0.5000 (   213 PWs)   bands (ev):

    -0.6546   7.3664   8.3154  12.6889  12.8564

          k =-0.1000-0.2000 0.6000 (   215 PWs)   bands (ev):

     0.6342   5.1480   7.4853  12.2522  13.7771

          k =-0.1000 0.7000-0.3000 (   212 PWs)   bands (ev):

     1.6667   3.7379   7.2448  12.0792  14.6648

          k =-0.2000 0.8000-0.3000 (   217 PWs)   bands (ev):

     2.0493   3.8426   6.3487  12.8386  13.9845

          k =-0.3000 0.3000 0.3000 (   210 PWs)   bands (ev):

    -0.6833   7.5047   7.5047   9.5366  19.2505

          k = 0.6000-0.6000 0.3000 (   212 PWs)   bands (ev):

     0.6037   5.0547   6.7970   9.0165  20.0334

          k = 0.5000-0.5000 0.3000 (   214 PWs)   bands (ev):

     1.6790   3.5645   6.5593   8.8599  20.2208

          k = 0.5000-0.6000 0.4000 (   218 PWs)   bands (ev):

     2.0416   3.8810   5.3978   8.6240  21.3554

          k = 0.0000 0.0000 0.5000 (   209 PWs)   bands (ev):

    -0.8310   8.6199   8.6199  11.1351  12.4997

          k = 0.0000-0.1000 0.6000 (   216 PWs)   bands (ev):

     0.3231   6.6410   7.6860  10.8848  12.5553

          k = 0.0000-0.2000 0.7000 (   216 PWs)   bands (ev):

     1.7058   4.5333   7.2126  11.0287  13.5109

          k =-0.1000-0.1000 0.7000 (   220 PWs)   bands (ev):

     1.6557   5.4450   6.6028  10.9289  12.4785

          k =-0.1000 0.8000-0.2000 (   218 PWs)   bands (ev):

     2.8655   4.1047   6.2545  11.3607  13.0327

          k = 0.5000-0.5000 0.5000 (   216 PWs)   bands (ev):

     3.6397   3.6397   3.6397   8.2924  23.3841

          k = 0.0000 0.0000 0.7000 (   220 PWs)   bands (ev):

     1.5208   6.7478   6.7478   9.1401  12.0408

          k = 0.0000-0.1000 0.8000 (   220 PWs)   bands (ev):

     3.0116   5.2670   6.2726   9.4341  11.4896

          k =-0.1000 0.9000-0.1000 (   224 PWs)   bands (ev):

     4.4758   4.4758   5.7976   9.9534   9.9534

          k = 0.0000 0.0000 0.9000 (   228 PWs)   bands (ev):

     4.5855   5.7963   5.7963   8.1425   9.2670

     the Fermi energy is     0.3726 ev

!    total energy              =      -0.68873286 Ry
     estimated scf accuracy    <          3.5E-10 Ry
     smearing contrib. (-TS)   =      -0.00006060 Ry
     internal energy E=F+TS    =      -0.68867226 Ry

     The total energy is F=E-TS. E is the sum of the following terms:
     one-electron contribution =       0.40345303 Ry
     hartree contribution      =       0.00093997 Ry
     xc contribution           =      -0.53830404 Ry
     ewald contribution        =      -0.55476123 Ry

     convergence has been achieved in   3 iterations

     Forces acting on atoms (cartesian axes, Ry/au):

     atom    1 type  1   force =     0.00000000    0.00000000    0.00000000

     Total force =     0.000000     Total SCF correction =     0.000000


     Computing stress (Cartesian axis) and pressure

          total   stress  (Ry/bohr**3)                   (kbar)     P=      -14.60
  -0.00009928   0.00000000  -0.00000000          -14.60        0.00       -0.00
   0.00000000  -0.00009928   0.00000000            0.00      -14.60        0.00
  -0.00000000   0.00000000  -0.00009928           -0.00        0.00      -14.60


     Writing all to output data dir ./QE-outdir/li.save/ :
     XML data file, charge density, pseudopotentials, collected wavefunctions

     init_run     :      0.06s CPU      0.08s WALL (       1 calls)
     electrons    :      0.22s CPU      0.31s WALL (       1 calls)
     forces       :      0.00s CPU      0.00s WALL (       1 calls)
     stress       :      0.02s CPU      0.03s WALL (       1 calls)

     Called by init_run:
     wfcinit      :      0.05s CPU      0.07s WALL (       1 calls)
     potinit      :      0.00s CPU      0.00s WALL (       1 calls)
     hinit0       :      0.01s CPU      0.01s WALL (       1 calls)

     Called by electrons:
     c_bands      :      0.19s CPU      0.28s WALL (       4 calls)
     sum_band     :      0.03s CPU      0.03s WALL (       4 calls)
     v_of_rho     :      0.00s CPU      0.00s WALL (       4 calls)
     mix_rho      :      0.00s CPU      0.00s WALL (       4 calls)

     Called by c_bands:
     init_us_2    :      0.01s CPU      0.01s WALL (     484 calls)
     cegterg      :      0.19s CPU      0.28s WALL (     176 calls)

     Called by *egterg:
     cdiaghg      :      0.07s CPU      0.17s WALL (     611 calls)
     h_psi        :      0.15s CPU      0.15s WALL (     699 calls)
     g_psi        :      0.00s CPU      0.00s WALL (     479 calls)

     Called by h_psi:
     h_psi:calbec :      0.00s CPU      0.00s WALL (     699 calls)
     vloc_psi     :      0.14s CPU      0.15s WALL (     699 calls)
                                        0.00s GPU  (     699 calls)
     add_vuspsi   :      0.00s CPU      0.00s WALL (     699 calls)

     General routines
     calbec       :      0.01s CPU      0.01s WALL (    1447 calls)
     fft          :      0.00s CPU      0.00s WALL (      20 calls)
     ffts         :      0.00s CPU      0.00s WALL (       4 calls)
     fftw         :      0.15s CPU      0.15s WALL (    7334 calls)

     Parallel routines

     PWSCF        :      0.32s CPU      0.43s WALL


   This run was terminated on:  23:31: 3  31Jan2026            

=------------------------------------------------------------------------------=
   JOB DONE.
=------------------------------------------------------------------------------=
