
     Program PWSCF v.7.5 starts on 31Jan2026 at 23:30:53 

     This program is part of the open-source Quantum ESPRESSO suite
     for quantum simulation of materials; please cite
         "P. Giannozzi et al., J. Phys.:Condens. Matter 21 395502 (2009);
         "P. Giannozzi et al., J. Phys.:Condens. Matter 29 465901 (2017);
         "P. Giannozzi et al., J. Chem. Phys. 152 154105 (2020);
          URL http://www.quantum-espresso.org", 
     in publications or presentations arising from this work. More details at
     http://www.quantum-espresso.org/quote

     Parallel version (MPI), running on     1 processors

     MPI processes distributed on     1 nodes
     0 MiB available memory on the printing compute node when the environment starts

     Waiting for input...
     Reading input from standard input
     Message from routine read_cards :
     DEPRECATED: no units specified in ATOMIC_POSITIONS card
     Message from routine read_cards :
     ATOMIC_POSITIONS: units set to alat

     Current dimensions of program PWSCF are:
     Max number of different atomic species (ntypx) = 10
     Max number of k-points (npk) =  40000
     Max angular momentum in pseudopotentials (lmaxx) =  4
     file Li.pbe-mt_fhi.UPF: wavefunction(s)  2p 4f renormalized

     IMPORTANT: XC functional enforced from input :
     Exchange-correlation= PZ
                           (   1   1   0   0   0   0   0)
     Any further DFT definition will be discarded
     Please, verify this is what you really want


     Subspace diagonalization in iterative solution of the eigenvalue problem:
     a serial algorithm will be used


     G-vector sticks info
     --------------------
     sticks:   dense  smooth     PW     G-vecs:    dense   smooth      PW
     Sum         173     173     63                 1481     1481     321

     Using Slab Decomposition



     bravais-lattice index     =            3
     lattice parameter (alat)  =       6.2400  a.u.
     unit-cell volume          =     121.4853 (a.u.)^3
     number of atoms/cell      =            1
     number of atomic types    =            1
     number of electrons       =         1.00
     number of Kohn-Sham states=            5
     kinetic-energy cutoff     =      20.0000  Ry
     charge density cutoff     =      80.0000  Ry
     scf convergence threshold =      1.0E-08
     mixing beta               =       0.7000
     number of iterations used =            8  plain     mixing
     Exchange-correlation= PZ
                           (   1   1   0   0   0   0   0)

     celldm(1)=   6.240000  celldm(2)=   0.000000  celldm(3)=   0.000000
     celldm(4)=   0.000000  celldm(5)=   0.000000  celldm(6)=   0.000000

     crystal axes: (cart. coord. in units of alat)
               a(1) = (   0.500000   0.500000   0.500000 )  
               a(2) = (  -0.500000   0.500000   0.500000 )  
               a(3) = (  -0.500000  -0.500000   0.500000 )  

     reciprocal axes: (cart. coord. in units 2 pi/alat)
               b(1) = (  1.000000  0.000000  1.000000 )  
               b(2) = ( -1.000000  1.000000  0.000000 )  
               b(3) = (  0.000000 -1.000000  1.000000 )  


     PseudoPot. # 1 for Li read from file:
     ./pseudopot/Li.pbe-mt_fhi.UPF
     MD5 check sum: 3419f5616d131090147e867976aae79b
     Pseudo is Norm-conserving + core correction, Zval =  1.0
     Generated using FHI98PP, converted with fhi2upf.x v.5.0.2
     Using radial grid of  433 points,  3 beta functions with: 
                l(1) =   0
                l(2) =   1
                l(3) =   3

     atomic species   valence    mass     pseudopotential
     Li                1.00     6.94000     Li( 1.00)

     48 Sym. Ops., with inversion, found



   Cartesian axes

     site n.     atom                  positions (alat units)
         1        Li     tau(   1) = (   0.0000000   0.0000000   0.0000000  )

     number of k points=    44  Methfessel-Paxton smearing, width (Ry)=  0.0100
                       cart. coord. in units 2pi/alat
        k(    1) = (   0.0000000   0.0000000   0.1000000), wk =   0.0120000
        k(    2) = (   0.0000000  -0.1000000   0.2000000), wk =   0.0480000
        k(    3) = (   0.0000000  -0.2000000   0.3000000), wk =   0.0480000
        k(    4) = (   0.0000000  -0.3000000   0.4000000), wk =   0.0480000
        k(    5) = (   0.0000000  -0.4000000   0.5000000), wk =   0.0480000
        k(    6) = (  -0.1000000   0.1000000   0.1000000), wk =   0.0160000
        k(    7) = (  -0.1000000  -0.1000000   0.3000000), wk =   0.0480000
        k(    8) = (  -0.1000000  -0.2000000   0.4000000), wk =   0.0960000
        k(    9) = (  -0.1000000  -0.3000000   0.5000000), wk =   0.0960000
        k(   10) = (  -0.1000000   0.6000000  -0.4000000), wk =   0.0480000
        k(   11) = (  -0.2000000   0.2000000   0.1000000), wk =   0.0480000
        k(   12) = (  -0.2000000  -0.2000000   0.5000000), wk =   0.0480000
        k(   13) = (  -0.2000000   0.7000000  -0.4000000), wk =   0.0960000
        k(   14) = (  -0.3000000   0.3000000   0.1000000), wk =   0.0480000
        k(   15) = (  -0.3000000   0.2000000   0.2000000), wk =   0.0480000
        k(   16) = (  -0.3000000   0.7000000  -0.3000000), wk =   0.0160000
        k(   17) = (  -0.4000000   0.4000000   0.1000000), wk =   0.0480000
        k(   18) = (  -0.4000000   0.3000000   0.2000000), wk =   0.0960000
        k(   19) = (   0.5000000  -0.5000000   0.1000000), wk =   0.0240000
        k(   20) = (   0.5000000  -0.6000000   0.2000000), wk =   0.0960000
        k(   21) = (   0.5000000  -0.7000000   0.3000000), wk =   0.0480000
        k(   22) = (   0.4000000  -0.6000000   0.3000000), wk =   0.0480000
        k(   23) = (   0.0000000   0.0000000   0.3000000), wk =   0.0120000
        k(   24) = (   0.0000000  -0.1000000   0.4000000), wk =   0.0480000
        k(   25) = (   0.0000000  -0.2000000   0.5000000), wk =   0.0480000
        k(   26) = (   0.0000000  -0.3000000   0.6000000), wk =   0.0480000
        k(   27) = (  -0.1000000  -0.1000000   0.5000000), wk =   0.0480000
        k(   28) = (  -0.1000000  -0.2000000   0.6000000), wk =   0.0960000
        k(   29) = (  -0.1000000   0.7000000  -0.3000000), wk =   0.0480000
        k(   30) = (  -0.2000000   0.8000000  -0.3000000), wk =   0.0480000
        k(   31) = (  -0.3000000   0.3000000   0.3000000), wk =   0.0160000
        k(   32) = (   0.6000000  -0.6000000   0.3000000), wk =   0.0480000
        k(   33) = (   0.5000000  -0.5000000   0.3000000), wk =   0.0240000
        k(   34) = (   0.5000000  -0.6000000   0.4000000), wk =   0.0480000
        k(   35) = (   0.0000000   0.0000000   0.5000000), wk =   0.0120000
        k(   36) = (   0.0000000  -0.1000000   0.6000000), wk =   0.0480000
        k(   37) = (   0.0000000  -0.2000000   0.7000000), wk =   0.0480000
        k(   38) = (  -0.1000000  -0.1000000   0.7000000), wk =   0.0480000
        k(   39) = (  -0.1000000   0.8000000  -0.2000000), wk =   0.0480000
        k(   40) = (   0.5000000  -0.5000000   0.5000000), wk =   0.0040000
        k(   41) = (   0.0000000   0.0000000   0.7000000), wk =   0.0120000
        k(   42) = (   0.0000000  -0.1000000   0.8000000), wk =   0.0480000
        k(   43) = (  -0.1000000   0.9000000  -0.1000000), wk =   0.0160000
        k(   44) = (   0.0000000   0.0000000   0.9000000), wk =   0.0120000

     Dense  grid:     1481 G-vectors     FFT dimensions: (  15,  15,  15)

     Estimated max dynamical RAM per process >       1.86 MB

     Initial potential from superposition of free atoms

     starting charge       0.9960, renormalised to       1.0000
     Starting wfcs are   16 randomized atomic wfcs

     total cpu time spent up to now is        0.1 secs

     Self-consistent Calculation

     iteration #  1     ecut=    20.00 Ry     beta= 0.70
     Davidson diagonalization with overlap
     ethr =  1.00E-02,  avg # of iterations =  4.2

     Threshold (ethr) on eigenvalues was too large:
     Diagonalizing with lowered threshold

     Davidson diagonalization with overlap
     ethr =  2.29E-05,  avg # of iterations =  3.9

     total cpu time spent up to now is        0.2 secs

     total energy              =      -0.68947011 Ry
     estimated scf accuracy    <       0.00022979 Ry

     iteration #  2     ecut=    20.00 Ry     beta= 0.70
     Davidson diagonalization with overlap
     ethr =  2.30E-05,  avg # of iterations =  1.0

     total cpu time spent up to now is        0.2 secs

     total energy              =      -0.68946703 Ry
     estimated scf accuracy    <       0.00001988 Ry

     iteration #  3     ecut=    20.00 Ry     beta= 0.70
     Davidson diagonalization with overlap
     ethr =  1.99E-06,  avg # of iterations =  1.2

     total cpu time spent up to now is        0.3 secs

     End of self-consistent calculation

          k = 0.0000 0.0000 0.1000 (   185 PWs)   bands (ev):

    -2.9294  15.8980  15.8980  16.2159  20.2664

          k = 0.0000-0.1000 0.2000 (   185 PWs)   bands (ev):

    -2.5287  13.5032  14.4494  15.6310  18.4715

          k = 0.0000-0.2000 0.3000 (   183 PWs)   bands (ev):

    -1.7294  10.1291  13.0376  14.7390  17.6507

          k = 0.0000-0.3000 0.4000 (   182 PWs)   bands (ev):

    -0.5632   7.0548  12.0365  13.9601  16.5724

          k = 0.0000-0.4000 0.5000 (   183 PWs)   bands (ev):

     0.7201   4.7882  11.5257  13.5337  16.0303

          k =-0.1000 0.1000 0.1000 (   189 PWs)   bands (ev):

    -2.7297  14.8426  15.2009  15.2009  19.5362

          k =-0.1000-0.1000 0.3000 (   186 PWs)   bands (ev):

    -1.9254  11.5884  12.2651  14.8823  17.5195

          k =-0.1000-0.2000 0.4000 (   181 PWs)   bands (ev):

    -0.9263   8.5615  10.9455  14.0329  17.5397

          k =-0.1000-0.3000 0.5000 (   183 PWs)   bands (ev):

     0.3924   5.8365  10.2117  13.4002  17.6356

          k =-0.1000 0.6000-0.4000 (   180 PWs)   bands (ev):

     1.3443   4.4027   9.9673  13.1759  17.5776

          k =-0.2000 0.2000 0.1000 (   183 PWs)   bands (ev):

    -2.1297  11.8565  13.5739  13.8833  18.9917

          k =-0.2000-0.2000 0.5000 (   179 PWs)   bands (ev):

     0.2684   6.7144   9.0273  13.5119  17.7917

          k =-0.2000 0.7000-0.4000 (   184 PWs)   bands (ev):

     1.6998   4.6705   8.2718  13.1943  18.3729

          k =-0.3000 0.3000 0.1000 (   179 PWs)   bands (ev):

    -1.1382   8.5332  12.5044  12.7365  18.2094

          k =-0.3000 0.2000 0.2000 (   179 PWs)   bands (ev):

    -1.3296   9.9010  11.0538  12.6280  19.9354

          k =-0.3000 0.7000-0.3000 (   185 PWs)   bands (ev):

     3.2354   3.2354   7.5289  13.1314  19.7414

          k =-0.4000 0.4000 0.1000 (   183 PWs)   bands (ev):

     0.1610   5.7679  11.8314  12.0050  17.5804

          k =-0.4000 0.3000 0.2000 (   181 PWs)   bands (ev):

    -0.1463   7.0879   9.8352  11.8854  20.0460

          k = 0.5000-0.5000 0.1000 (   188 PWs)   bands (ev):

     1.0746   4.3580  11.6025  11.7563  17.3539

          k = 0.5000-0.6000 0.2000 (   182 PWs)   bands (ev):

     1.2178   4.7846   9.3100  11.5037  19.8836

          k = 0.5000-0.7000 0.3000 (   181 PWs)   bands (ev):

     1.2221   5.3992   8.0393  11.4556  21.5156

          k = 0.4000-0.6000 0.3000 (   179 PWs)   bands (ev):

     2.4316   3.9662   7.5441  11.3101  21.6617

          k = 0.0000 0.0000 0.3000 (   177 PWs)   bands (ev):

    -2.1225  12.8610  12.8610  15.1386  15.8631

          k = 0.0000-0.1000 0.4000 (   181 PWs)   bands (ev):

    -1.3112  10.2395  11.3892  14.4822  15.3814

          k = 0.0000-0.2000 0.5000 (   185 PWs)   bands (ev):

    -0.1202   7.2718  10.3617  13.8098  16.2506

          k = 0.0000-0.3000 0.6000 (   183 PWs)   bands (ev):

     1.2272   4.9767   9.8409  13.4511  17.3788

          k =-0.1000-0.1000 0.5000 (   182 PWs)   bands (ev):

    -0.2915   8.4739   9.6342  14.4971  14.5723

          k =-0.1000-0.2000 0.6000 (   184 PWs)   bands (ev):

     1.0788   6.0592   8.7286  14.0115  15.5829

          k =-0.1000 0.7000-0.3000 (   181 PWs)   bands (ev):

     2.1500   4.5691   8.4625  13.8252  16.5706

          k =-0.2000 0.8000-0.3000 (   187 PWs)   bands (ev):

     2.5954   4.5609   7.5913  14.6849  15.7553

          k =-0.3000 0.3000 0.3000 (   183 PWs)   bands (ev):

    -0.3302   8.6154   8.6154  11.1920  21.7042

          k = 0.6000-0.6000 0.3000 (   182 PWs)   bands (ev):

     1.0387   5.9330   7.8296  10.6683  22.8779

          k = 0.5000-0.5000 0.3000 (   176 PWs)   bands (ev):

     2.1628   4.3440   7.5661  10.5102  22.7683

          k = 0.5000-0.6000 0.4000 (   179 PWs)   bands (ev):

     2.5838   4.6001   6.3232  10.3015  24.0766

          k = 0.0000 0.0000 0.5000 (   184 PWs)   bands (ev):

    -0.4758   9.8941   9.8941  12.5566  14.4662

          k = 0.0000-0.1000 0.6000 (   186 PWs)   bands (ev):

     0.7600   7.7069   8.8572  12.3394  14.5120

          k = 0.0000-0.2000 0.7000 (   187 PWs)   bands (ev):

     2.2259   5.4252   8.3321  12.6348  15.4302

          k =-0.1000-0.1000 0.7000 (   193 PWs)   bands (ev):

     2.1934   6.3435   7.7310  12.3622  14.4200

          k =-0.1000 0.8000-0.2000 (   192 PWs)   bands (ev):

     3.4789   4.8959   7.3658  12.9070  14.6995

          k = 0.5000-0.5000 0.5000 (   180 PWs)   bands (ev):

     4.3326   4.3326   4.3326  10.0195  26.3403

          k = 0.0000 0.0000 0.7000 (   188 PWs)   bands (ev):

     2.0588   7.8160   7.8160  10.3516  13.9804

          k = 0.0000-0.1000 0.8000 (   188 PWs)   bands (ev):

     3.6694   6.1849   7.2891  10.7191  13.0801

          k =-0.1000 0.9000-0.1000 (   188 PWs)   bands (ev):

     5.2700   5.2700   6.8193  11.2828  11.2828

          k = 0.0000 0.0000 0.9000 (   188 PWs)   bands (ev):

     5.4081   6.7610   6.7610   9.2489  10.5291

     the Fermi energy is     0.7779 ev

!    total energy              =      -0.68946708 Ry
     estimated scf accuracy    <          2.0E-10 Ry
     smearing contrib. (-TS)   =      -0.00007721 Ry
     internal energy E=F+TS    =      -0.68938987 Ry

     The total energy is F=E-TS. E is the sum of the following terms:
     one-electron contribution =       0.45081628 Ry
     hartree contribution      =       0.00120253 Ry
     xc contribution           =      -0.55819817 Ry
     ewald contribution        =      -0.58321052 Ry

     convergence has been achieved in   3 iterations

     Forces acting on atoms (cartesian axes, Ry/au):

     atom    1 type  1   force =     0.00000000    0.00000000    0.00000000

     Total force =     0.000000     Total SCF correction =     0.000000


     Computing stress (Cartesian axis) and pressure

          total   stress  (Ry/bohr**3)                   (kbar)     P=        5.35
   0.00003637   0.00000000  -0.00000000            5.35        0.00       -0.00
   0.00000000   0.00003637   0.00000000            0.00        5.35        0.00
  -0.00000000   0.00000000   0.00003637           -0.00        0.00        5.35


     Writing all to output data dir ./QE-outdir/li.save/ :
     XML data file, charge density, pseudopotentials, collected wavefunctions

     init_run     :      0.04s CPU      0.05s WALL (       1 calls)
     electrons    :      0.12s CPU      0.21s WALL (       1 calls)
     forces       :      0.00s CPU      0.00s WALL (       1 calls)
     stress       :      0.02s CPU      0.02s WALL (       1 calls)

     Called by init_run:
     wfcinit      :      0.03s CPU      0.04s WALL (       1 calls)
     potinit      :      0.00s CPU      0.00s WALL (       1 calls)
     hinit0       :      0.01s CPU      0.01s WALL (       1 calls)

     Called by electrons:
     c_bands      :      0.11s CPU      0.20s WALL (       4 calls)
     sum_band     :      0.01s CPU      0.01s WALL (       4 calls)
     v_of_rho     :      0.00s CPU      0.00s WALL (       4 calls)
     mix_rho      :      0.00s CPU      0.00s WALL (       4 calls)

     Called by c_bands:
     init_us_2    :      0.01s CPU      0.01s WALL (     484 calls)
     cegterg      :      0.11s CPU      0.19s WALL (     176 calls)

     Called by *egterg:
     cdiaghg      :      0.07s CPU      0.16s WALL (     590 calls)
     h_psi        :      0.05s CPU      0.05s WALL (     678 calls)
     g_psi        :      0.00s CPU      0.00s WALL (     458 calls)

     Called by h_psi:
     h_psi:calbec :      0.00s CPU      0.00s WALL (     678 calls)
     vloc_psi     :      0.05s CPU      0.05s WALL (     678 calls)
                                        0.00s GPU  (     678 calls)
     add_vuspsi   :      0.00s CPU      0.00s WALL (     678 calls)

     General routines
     calbec       :      0.01s CPU      0.01s WALL (    1426 calls)
     fft          :      0.00s CPU      0.00s WALL (      20 calls)
     ffts         :      0.00s CPU      0.00s WALL (       4 calls)
     fftw         :      0.04s CPU      0.04s WALL (    7202 calls)

     Parallel routines

     PWSCF        :      0.19s CPU      0.30s WALL


   This run was terminated on:  23:30:53  31Jan2026            

=------------------------------------------------------------------------------=
   JOB DONE.
=------------------------------------------------------------------------------=
