
     Program PWSCF v.7.5 starts on 31Jan2026 at 23:30:51 

     This program is part of the open-source Quantum ESPRESSO suite
     for quantum simulation of materials; please cite
         "P. Giannozzi et al., J. Phys.:Condens. Matter 21 395502 (2009);
         "P. Giannozzi et al., J. Phys.:Condens. Matter 29 465901 (2017);
         "P. Giannozzi et al., J. Chem. Phys. 152 154105 (2020);
          URL http://www.quantum-espresso.org", 
     in publications or presentations arising from this work. More details at
     http://www.quantum-espresso.org/quote

     Parallel version (MPI), running on     1 processors

     MPI processes distributed on     1 nodes
     0 MiB available memory on the printing compute node when the environment starts

     Waiting for input...
     Reading input from standard input
     Message from routine read_cards :
     DEPRECATED: no units specified in ATOMIC_POSITIONS card
     Message from routine read_cards :
     ATOMIC_POSITIONS: units set to alat

     Current dimensions of program PWSCF are:
     Max number of different atomic species (ntypx) = 10
     Max number of k-points (npk) =  40000
     Max angular momentum in pseudopotentials (lmaxx) =  4
     file Li.pbe-mt_fhi.UPF: wavefunction(s)  2p 4f renormalized

     IMPORTANT: XC functional enforced from input :
     Exchange-correlation= PZ
                           (   1   1   0   0   0   0   0)
     Any further DFT definition will be discarded
     Please, verify this is what you really want


     Subspace diagonalization in iterative solution of the eigenvalue problem:
     a serial algorithm will be used


     G-vector sticks info
     --------------------
     sticks:   dense  smooth     PW     G-vecs:    dense   smooth      PW
     Sum         173     173     63                 1433     1433     321

     Using Slab Decomposition



     bravais-lattice index     =            3
     lattice parameter (alat)  =       6.1900  a.u.
     unit-cell volume          =     118.5883 (a.u.)^3
     number of atoms/cell      =            1
     number of atomic types    =            1
     number of electrons       =         1.00
     number of Kohn-Sham states=            5
     kinetic-energy cutoff     =      20.0000  Ry
     charge density cutoff     =      80.0000  Ry
     scf convergence threshold =      1.0E-08
     mixing beta               =       0.7000
     number of iterations used =            8  plain     mixing
     Exchange-correlation= PZ
                           (   1   1   0   0   0   0   0)

     celldm(1)=   6.190000  celldm(2)=   0.000000  celldm(3)=   0.000000
     celldm(4)=   0.000000  celldm(5)=   0.000000  celldm(6)=   0.000000

     crystal axes: (cart. coord. in units of alat)
               a(1) = (   0.500000   0.500000   0.500000 )  
               a(2) = (  -0.500000   0.500000   0.500000 )  
               a(3) = (  -0.500000  -0.500000   0.500000 )  

     reciprocal axes: (cart. coord. in units 2 pi/alat)
               b(1) = (  1.000000  0.000000  1.000000 )  
               b(2) = ( -1.000000  1.000000  0.000000 )  
               b(3) = (  0.000000 -1.000000  1.000000 )  


     PseudoPot. # 1 for Li read from file:
     ./pseudopot/Li.pbe-mt_fhi.UPF
     MD5 check sum: 3419f5616d131090147e867976aae79b
     Pseudo is Norm-conserving + core correction, Zval =  1.0
     Generated using FHI98PP, converted with fhi2upf.x v.5.0.2
     Using radial grid of  433 points,  3 beta functions with: 
                l(1) =   0
                l(2) =   1
                l(3) =   3

     atomic species   valence    mass     pseudopotential
     Li                1.00     6.94000     Li( 1.00)

     48 Sym. Ops., with inversion, found



   Cartesian axes

     site n.     atom                  positions (alat units)
         1        Li     tau(   1) = (   0.0000000   0.0000000   0.0000000  )

     number of k points=    44  Methfessel-Paxton smearing, width (Ry)=  0.0100
                       cart. coord. in units 2pi/alat
        k(    1) = (   0.0000000   0.0000000   0.1000000), wk =   0.0120000
        k(    2) = (   0.0000000  -0.1000000   0.2000000), wk =   0.0480000
        k(    3) = (   0.0000000  -0.2000000   0.3000000), wk =   0.0480000
        k(    4) = (   0.0000000  -0.3000000   0.4000000), wk =   0.0480000
        k(    5) = (   0.0000000  -0.4000000   0.5000000), wk =   0.0480000
        k(    6) = (  -0.1000000   0.1000000   0.1000000), wk =   0.0160000
        k(    7) = (  -0.1000000  -0.1000000   0.3000000), wk =   0.0480000
        k(    8) = (  -0.1000000  -0.2000000   0.4000000), wk =   0.0960000
        k(    9) = (  -0.1000000  -0.3000000   0.5000000), wk =   0.0960000
        k(   10) = (  -0.1000000   0.6000000  -0.4000000), wk =   0.0480000
        k(   11) = (  -0.2000000   0.2000000   0.1000000), wk =   0.0480000
        k(   12) = (  -0.2000000  -0.2000000   0.5000000), wk =   0.0480000
        k(   13) = (  -0.2000000   0.7000000  -0.4000000), wk =   0.0960000
        k(   14) = (  -0.3000000   0.3000000   0.1000000), wk =   0.0480000
        k(   15) = (  -0.3000000   0.2000000   0.2000000), wk =   0.0480000
        k(   16) = (  -0.3000000   0.7000000  -0.3000000), wk =   0.0160000
        k(   17) = (  -0.4000000   0.4000000   0.1000000), wk =   0.0480000
        k(   18) = (  -0.4000000   0.3000000   0.2000000), wk =   0.0960000
        k(   19) = (   0.5000000  -0.5000000   0.1000000), wk =   0.0240000
        k(   20) = (   0.5000000  -0.6000000   0.2000000), wk =   0.0960000
        k(   21) = (   0.5000000  -0.7000000   0.3000000), wk =   0.0480000
        k(   22) = (   0.4000000  -0.6000000   0.3000000), wk =   0.0480000
        k(   23) = (   0.0000000   0.0000000   0.3000000), wk =   0.0120000
        k(   24) = (   0.0000000  -0.1000000   0.4000000), wk =   0.0480000
        k(   25) = (   0.0000000  -0.2000000   0.5000000), wk =   0.0480000
        k(   26) = (   0.0000000  -0.3000000   0.6000000), wk =   0.0480000
        k(   27) = (  -0.1000000  -0.1000000   0.5000000), wk =   0.0480000
        k(   28) = (  -0.1000000  -0.2000000   0.6000000), wk =   0.0960000
        k(   29) = (  -0.1000000   0.7000000  -0.3000000), wk =   0.0480000
        k(   30) = (  -0.2000000   0.8000000  -0.3000000), wk =   0.0480000
        k(   31) = (  -0.3000000   0.3000000   0.3000000), wk =   0.0160000
        k(   32) = (   0.6000000  -0.6000000   0.3000000), wk =   0.0480000
        k(   33) = (   0.5000000  -0.5000000   0.3000000), wk =   0.0240000
        k(   34) = (   0.5000000  -0.6000000   0.4000000), wk =   0.0480000
        k(   35) = (   0.0000000   0.0000000   0.5000000), wk =   0.0120000
        k(   36) = (   0.0000000  -0.1000000   0.6000000), wk =   0.0480000
        k(   37) = (   0.0000000  -0.2000000   0.7000000), wk =   0.0480000
        k(   38) = (  -0.1000000  -0.1000000   0.7000000), wk =   0.0480000
        k(   39) = (  -0.1000000   0.8000000  -0.2000000), wk =   0.0480000
        k(   40) = (   0.5000000  -0.5000000   0.5000000), wk =   0.0040000
        k(   41) = (   0.0000000   0.0000000   0.7000000), wk =   0.0120000
        k(   42) = (   0.0000000  -0.1000000   0.8000000), wk =   0.0480000
        k(   43) = (  -0.1000000   0.9000000  -0.1000000), wk =   0.0160000
        k(   44) = (   0.0000000   0.0000000   0.9000000), wk =   0.0120000

     Dense  grid:     1433 G-vectors     FFT dimensions: (  15,  15,  15)

     Estimated max dynamical RAM per process >       1.82 MB

     Initial potential from superposition of free atoms

     starting charge       0.9960, renormalised to       1.0000
     Starting wfcs are   16 randomized atomic wfcs

     total cpu time spent up to now is        0.1 secs

     Self-consistent Calculation

     iteration #  1     ecut=    20.00 Ry     beta= 0.70
     Davidson diagonalization with overlap
     ethr =  1.00E-02,  avg # of iterations =  4.5

     Threshold (ethr) on eigenvalues was too large:
     Diagonalizing with lowered threshold

     Davidson diagonalization with overlap
     ethr =  2.43E-05,  avg # of iterations =  3.6

     total cpu time spent up to now is        0.2 secs

     total energy              =      -0.68931897 Ry
     estimated scf accuracy    <       0.00024374 Ry

     iteration #  2     ecut=    20.00 Ry     beta= 0.70
     Davidson diagonalization with overlap
     ethr =  2.44E-05,  avg # of iterations =  1.0

     total cpu time spent up to now is        0.2 secs

     total energy              =      -0.68931570 Ry
     estimated scf accuracy    <       0.00002104 Ry

     iteration #  3     ecut=    20.00 Ry     beta= 0.70
     Davidson diagonalization with overlap
     ethr =  2.10E-06,  avg # of iterations =  1.3

     total cpu time spent up to now is        0.3 secs

     End of self-consistent calculation

          k = 0.0000 0.0000 0.1000 (   181 PWs)   bands (ev):

    -2.8893  16.2285  16.2285  16.5553  20.6345

          k = 0.0000-0.1000 0.2000 (   181 PWs)   bands (ev):

    -2.4855  13.7870  14.7508  15.9570  18.8194

          k = 0.0000-0.2000 0.3000 (   181 PWs)   bands (ev):

    -1.6798  10.3573  13.3131  15.0445  17.9826

          k = 0.0000-0.3000 0.4000 (   178 PWs)   bands (ev):

    -0.5043   7.2389  12.2948  14.2501  16.8868

          k = 0.0000-0.4000 0.5000 (   182 PWs)   bands (ev):

     0.7849   4.9486  11.7748  13.8152  16.3358

          k =-0.1000 0.1000 0.1000 (   183 PWs)   bands (ev):

    -2.6880  15.1579  15.5134  15.5134  19.9053

          k =-0.1000-0.1000 0.3000 (   179 PWs)   bands (ev):

    -1.8770  11.8314  12.5359  15.1929  17.8523

          k =-0.1000-0.2000 0.4000 (   180 PWs)   bands (ev):

    -0.8695   8.7595  11.1930  14.3245  17.8768

          k =-0.1000-0.3000 0.5000 (   177 PWs)   bands (ev):

     0.4595   5.9996  10.4471  13.6796  17.9815

          k =-0.1000 0.6000-0.4000 (   176 PWs)   bands (ev):

     1.4142   4.5544  10.1983  13.4507  17.9240

          k =-0.2000 0.2000 0.1000 (   178 PWs)   bands (ev):

    -2.0833  12.1101  13.8672  14.1665  19.3557

          k =-0.2000-0.2000 0.5000 (   177 PWs)   bands (ev):

     0.3365   6.8732   9.2602  13.7937  18.1293

          k =-0.2000 0.7000-0.4000 (   178 PWs)   bands (ev):

     1.7804   4.8030   8.4960  13.4713  18.7257

          k =-0.3000 0.3000 0.1000 (   179 PWs)   bands (ev):

    -1.0838   8.7354  12.7804  12.9974  18.5576

          k =-0.3000 0.2000 0.2000 (   177 PWs)   bands (ev):

    -1.2765  10.1131  11.3020  12.9057  20.3236

          k =-0.3000 0.7000-0.3000 (   179 PWs)   bands (ev):

     3.3365   3.3365   7.7541  13.4081  20.1109

          k =-0.4000 0.4000 0.1000 (   179 PWs)   bands (ev):

     0.2248   5.9344  12.0971  12.2529  17.9167

          k =-0.4000 0.3000 0.2000 (   175 PWs)   bands (ev):

    -0.0827   7.2602  10.0613  12.1562  20.4344

          k = 0.5000-0.5000 0.1000 (   182 PWs)   bands (ev):

     1.1402   4.5140  11.8647  11.9997  17.6859

          k = 0.5000-0.6000 0.2000 (   177 PWs)   bands (ev):

     1.2908   4.9309   9.5261  11.7702  20.2680

          k = 0.5000-0.7000 0.3000 (   179 PWs)   bands (ev):

     1.2991   5.5357   8.2493  11.7258  21.9195

          k = 0.4000-0.6000 0.3000 (   177 PWs)   bands (ev):

     2.5192   4.0847   7.7489  11.5800  22.0782

          k = 0.0000 0.0000 0.3000 (   177 PWs)   bands (ev):

    -2.0757  13.1307  13.1307  15.4679  16.1597

          k = 0.0000-0.1000 0.4000 (   181 PWs)   bands (ev):

    -1.2572  10.4650  11.6330  14.7901  15.6871

          k = 0.0000-0.2000 0.5000 (   177 PWs)   bands (ev):

    -0.0555   7.4539  10.5890  14.1100  16.5706

          k = 0.0000-0.3000 0.6000 (   179 PWs)   bands (ev):

     1.3004   5.1330  10.0584  13.7468  17.7206

          k =-0.1000-0.1000 0.5000 (   178 PWs)   bands (ev):

    -0.2275   8.6633   9.8602  14.7776  14.8945

          k =-0.1000-0.2000 0.6000 (   182 PWs)   bands (ev):

     1.1558   6.2152   8.9420  14.3113  15.8927

          k =-0.1000 0.7000-0.3000 (   181 PWs)   bands (ev):

     2.2331   4.7117   8.6715  14.1233  16.8961

          k =-0.2000 0.8000-0.3000 (   187 PWs)   bands (ev):

     2.6892   4.6839   7.8051  14.9999  16.0578

          k =-0.3000 0.3000 0.3000 (   177 PWs)   bands (ev):

    -0.2679   8.8055   8.8055  11.4776  22.1240

          k = 0.6000-0.6000 0.3000 (   178 PWs)   bands (ev):

     1.1141   6.0833   8.0063  10.9536  23.3174

          k = 0.5000-0.5000 0.3000 (   176 PWs)   bands (ev):

     2.2459   4.4775   7.7382  10.7952  23.2027

          k = 0.5000-0.6000 0.4000 (   175 PWs)   bands (ev):

     2.6770   4.7233   6.4812  10.5921  25.3785

          k = 0.0000 0.0000 0.5000 (   184 PWs)   bands (ev):

    -0.4129  10.1119  10.1119  12.7996  14.8025

          k = 0.0000-0.1000 0.6000 (   184 PWs)   bands (ev):

     0.8361   7.8895   9.0575  12.5875  14.8474

          k = 0.0000-0.2000 0.7000 (   179 PWs)   bands (ev):

     2.3156   5.5783   8.5238  12.9082  15.7596

          k =-0.1000-0.1000 0.7000 (   187 PWs)   bands (ev):

     2.2861   6.4974   7.9242  12.6073  14.7513

          k =-0.1000 0.8000-0.2000 (   186 PWs)   bands (ev):

     3.5843   5.0314   7.5566  13.1704  14.9845

          k = 0.5000-0.5000 0.5000 (   180 PWs)   bands (ev):

     4.4513   4.4513   4.4513  10.3182  26.8444

          k = 0.0000 0.0000 0.7000 (   180 PWs)   bands (ev):

     2.1518   7.9989   7.9989  10.5588  14.3104

          k = 0.0000-0.1000 0.8000 (   182 PWs)   bands (ev):

     3.7824   6.3423   7.4629  10.9388  13.3500

          k =-0.1000 0.9000-0.1000 (   182 PWs)   bands (ev):

     5.4059   5.4059   6.9949  11.5101  11.5101

          k = 0.0000 0.0000 0.9000 (   180 PWs)   bands (ev):

     5.5491   6.9262   6.9262   9.4383  10.7450

     the Fermi energy is     0.8491 ev

!    total energy              =      -0.68931576 Ry
     estimated scf accuracy    <          2.2E-10 Ry
     smearing contrib. (-TS)   =      -0.00007464 Ry
     internal energy E=F+TS    =      -0.68924112 Ry

     The total energy is F=E-TS. E is the sum of the following terms:
     one-electron contribution =       0.45894754 Ry
     hartree contribution      =       0.00124640 Ry
     xc contribution           =      -0.56151362 Ry
     ewald contribution        =      -0.58792143 Ry

     convergence has been achieved in   3 iterations

     Forces acting on atoms (cartesian axes, Ry/au):

     atom    1 type  1   force =     0.00000000    0.00000000    0.00000000

     Total force =     0.000000     Total SCF correction =     0.000000


     Computing stress (Cartesian axis) and pressure

          total   stress  (Ry/bohr**3)                   (kbar)     P=        9.60
   0.00006527   0.00000000  -0.00000000            9.60        0.00       -0.00
   0.00000000   0.00006527   0.00000000            0.00        9.60        0.00
  -0.00000000   0.00000000   0.00006527           -0.00        0.00        9.60


     Writing all to output data dir ./QE-outdir/li.save/ :
     XML data file, charge density, pseudopotentials, collected wavefunctions

     init_run     :      0.04s CPU      0.06s WALL (       1 calls)
     electrons    :      0.12s CPU      0.21s WALL (       1 calls)
     forces       :      0.00s CPU      0.00s WALL (       1 calls)
     stress       :      0.02s CPU      0.02s WALL (       1 calls)

     Called by init_run:
     wfcinit      :      0.03s CPU      0.04s WALL (       1 calls)
     potinit      :      0.00s CPU      0.00s WALL (       1 calls)
     hinit0       :      0.01s CPU      0.01s WALL (       1 calls)

     Called by electrons:
     c_bands      :      0.11s CPU      0.20s WALL (       4 calls)
     sum_band     :      0.01s CPU      0.01s WALL (       4 calls)
     v_of_rho     :      0.00s CPU      0.00s WALL (       4 calls)
     mix_rho      :      0.00s CPU      0.00s WALL (       4 calls)

     Called by c_bands:
     init_us_2    :      0.01s CPU      0.01s WALL (     484 calls)
     cegterg      :      0.10s CPU      0.19s WALL (     176 calls)

     Called by *egterg:
     cdiaghg      :      0.07s CPU      0.16s WALL (     589 calls)
     h_psi        :      0.05s CPU      0.05s WALL (     677 calls)
     g_psi        :      0.00s CPU      0.00s WALL (     457 calls)

     Called by h_psi:
     h_psi:calbec :      0.00s CPU      0.00s WALL (     677 calls)
     vloc_psi     :      0.05s CPU      0.05s WALL (     677 calls)
                                        0.00s GPU  (     677 calls)
     add_vuspsi   :      0.00s CPU      0.00s WALL (     677 calls)

     General routines
     calbec       :      0.01s CPU      0.01s WALL (    1425 calls)
     fft          :      0.00s CPU      0.00s WALL (      20 calls)
     ffts         :      0.00s CPU      0.00s WALL (       4 calls)
     fftw         :      0.04s CPU      0.04s WALL (    7182 calls)

     Parallel routines

     PWSCF        :      0.19s CPU      0.30s WALL


   This run was terminated on:  23:30:51  31Jan2026            

=------------------------------------------------------------------------------=
   JOB DONE.
=------------------------------------------------------------------------------=
