
     Program PWSCF v.7.5 starts on 31Jan2026 at 23:30:53 

     This program is part of the open-source Quantum ESPRESSO suite
     for quantum simulation of materials; please cite
         "P. Giannozzi et al., J. Phys.:Condens. Matter 21 395502 (2009);
         "P. Giannozzi et al., J. Phys.:Condens. Matter 29 465901 (2017);
         "P. Giannozzi et al., J. Chem. Phys. 152 154105 (2020);
          URL http://www.quantum-espresso.org", 
     in publications or presentations arising from this work. More details at
     http://www.quantum-espresso.org/quote

     Parallel version (MPI), running on     1 processors

     MPI processes distributed on     1 nodes
     0 MiB available memory on the printing compute node when the environment starts

     Waiting for input...
     Reading input from standard input
     Message from routine read_cards :
     DEPRECATED: no units specified in ATOMIC_POSITIONS card
     Message from routine read_cards :
     ATOMIC_POSITIONS: units set to alat

     Current dimensions of program PWSCF are:
     Max number of different atomic species (ntypx) = 10
     Max number of k-points (npk) =  40000
     Max angular momentum in pseudopotentials (lmaxx) =  4
     file Li.pbe-mt_fhi.UPF: wavefunction(s)  2p 4f renormalized

     IMPORTANT: XC functional enforced from input :
     Exchange-correlation= PZ
                           (   1   1   0   0   0   0   0)
     Any further DFT definition will be discarded
     Please, verify this is what you really want


     Subspace diagonalization in iterative solution of the eigenvalue problem:
     a serial algorithm will be used


     G-vector sticks info
     --------------------
     sticks:   dense  smooth     PW     G-vecs:    dense   smooth      PW
     Sum         173     173     63                 1481     1481     321

     Using Slab Decomposition



     bravais-lattice index     =            3
     lattice parameter (alat)  =       6.2600  a.u.
     unit-cell volume          =     122.6572 (a.u.)^3
     number of atoms/cell      =            1
     number of atomic types    =            1
     number of electrons       =         1.00
     number of Kohn-Sham states=            5
     kinetic-energy cutoff     =      20.0000  Ry
     charge density cutoff     =      80.0000  Ry
     scf convergence threshold =      1.0E-08
     mixing beta               =       0.7000
     number of iterations used =            8  plain     mixing
     Exchange-correlation= PZ
                           (   1   1   0   0   0   0   0)

     celldm(1)=   6.260000  celldm(2)=   0.000000  celldm(3)=   0.000000
     celldm(4)=   0.000000  celldm(5)=   0.000000  celldm(6)=   0.000000

     crystal axes: (cart. coord. in units of alat)
               a(1) = (   0.500000   0.500000   0.500000 )  
               a(2) = (  -0.500000   0.500000   0.500000 )  
               a(3) = (  -0.500000  -0.500000   0.500000 )  

     reciprocal axes: (cart. coord. in units 2 pi/alat)
               b(1) = (  1.000000  0.000000  1.000000 )  
               b(2) = ( -1.000000  1.000000  0.000000 )  
               b(3) = (  0.000000 -1.000000  1.000000 )  


     PseudoPot. # 1 for Li read from file:
     ./pseudopot/Li.pbe-mt_fhi.UPF
     MD5 check sum: 3419f5616d131090147e867976aae79b
     Pseudo is Norm-conserving + core correction, Zval =  1.0
     Generated using FHI98PP, converted with fhi2upf.x v.5.0.2
     Using radial grid of  433 points,  3 beta functions with: 
                l(1) =   0
                l(2) =   1
                l(3) =   3

     atomic species   valence    mass     pseudopotential
     Li                1.00     6.94000     Li( 1.00)

     48 Sym. Ops., with inversion, found



   Cartesian axes

     site n.     atom                  positions (alat units)
         1        Li     tau(   1) = (   0.0000000   0.0000000   0.0000000  )

     number of k points=    44  Methfessel-Paxton smearing, width (Ry)=  0.0100
                       cart. coord. in units 2pi/alat
        k(    1) = (   0.0000000   0.0000000   0.1000000), wk =   0.0120000
        k(    2) = (   0.0000000  -0.1000000   0.2000000), wk =   0.0480000
        k(    3) = (   0.0000000  -0.2000000   0.3000000), wk =   0.0480000
        k(    4) = (   0.0000000  -0.3000000   0.4000000), wk =   0.0480000
        k(    5) = (   0.0000000  -0.4000000   0.5000000), wk =   0.0480000
        k(    6) = (  -0.1000000   0.1000000   0.1000000), wk =   0.0160000
        k(    7) = (  -0.1000000  -0.1000000   0.3000000), wk =   0.0480000
        k(    8) = (  -0.1000000  -0.2000000   0.4000000), wk =   0.0960000
        k(    9) = (  -0.1000000  -0.3000000   0.5000000), wk =   0.0960000
        k(   10) = (  -0.1000000   0.6000000  -0.4000000), wk =   0.0480000
        k(   11) = (  -0.2000000   0.2000000   0.1000000), wk =   0.0480000
        k(   12) = (  -0.2000000  -0.2000000   0.5000000), wk =   0.0480000
        k(   13) = (  -0.2000000   0.7000000  -0.4000000), wk =   0.0960000
        k(   14) = (  -0.3000000   0.3000000   0.1000000), wk =   0.0480000
        k(   15) = (  -0.3000000   0.2000000   0.2000000), wk =   0.0480000
        k(   16) = (  -0.3000000   0.7000000  -0.3000000), wk =   0.0160000
        k(   17) = (  -0.4000000   0.4000000   0.1000000), wk =   0.0480000
        k(   18) = (  -0.4000000   0.3000000   0.2000000), wk =   0.0960000
        k(   19) = (   0.5000000  -0.5000000   0.1000000), wk =   0.0240000
        k(   20) = (   0.5000000  -0.6000000   0.2000000), wk =   0.0960000
        k(   21) = (   0.5000000  -0.7000000   0.3000000), wk =   0.0480000
        k(   22) = (   0.4000000  -0.6000000   0.3000000), wk =   0.0480000
        k(   23) = (   0.0000000   0.0000000   0.3000000), wk =   0.0120000
        k(   24) = (   0.0000000  -0.1000000   0.4000000), wk =   0.0480000
        k(   25) = (   0.0000000  -0.2000000   0.5000000), wk =   0.0480000
        k(   26) = (   0.0000000  -0.3000000   0.6000000), wk =   0.0480000
        k(   27) = (  -0.1000000  -0.1000000   0.5000000), wk =   0.0480000
        k(   28) = (  -0.1000000  -0.2000000   0.6000000), wk =   0.0960000
        k(   29) = (  -0.1000000   0.7000000  -0.3000000), wk =   0.0480000
        k(   30) = (  -0.2000000   0.8000000  -0.3000000), wk =   0.0480000
        k(   31) = (  -0.3000000   0.3000000   0.3000000), wk =   0.0160000
        k(   32) = (   0.6000000  -0.6000000   0.3000000), wk =   0.0480000
        k(   33) = (   0.5000000  -0.5000000   0.3000000), wk =   0.0240000
        k(   34) = (   0.5000000  -0.6000000   0.4000000), wk =   0.0480000
        k(   35) = (   0.0000000   0.0000000   0.5000000), wk =   0.0120000
        k(   36) = (   0.0000000  -0.1000000   0.6000000), wk =   0.0480000
        k(   37) = (   0.0000000  -0.2000000   0.7000000), wk =   0.0480000
        k(   38) = (  -0.1000000  -0.1000000   0.7000000), wk =   0.0480000
        k(   39) = (  -0.1000000   0.8000000  -0.2000000), wk =   0.0480000
        k(   40) = (   0.5000000  -0.5000000   0.5000000), wk =   0.0040000
        k(   41) = (   0.0000000   0.0000000   0.7000000), wk =   0.0120000
        k(   42) = (   0.0000000  -0.1000000   0.8000000), wk =   0.0480000
        k(   43) = (  -0.1000000   0.9000000  -0.1000000), wk =   0.0160000
        k(   44) = (   0.0000000   0.0000000   0.9000000), wk =   0.0120000

     Dense  grid:     1481 G-vectors     FFT dimensions: (  15,  15,  15)

     Estimated max dynamical RAM per process >       1.86 MB

     Initial potential from superposition of free atoms

     starting charge       0.9960, renormalised to       1.0000
     Starting wfcs are   16 randomized atomic wfcs

     total cpu time spent up to now is        0.1 secs

     Self-consistent Calculation

     iteration #  1     ecut=    20.00 Ry     beta= 0.70
     Davidson diagonalization with overlap
     ethr =  1.00E-02,  avg # of iterations =  4.2

     Threshold (ethr) on eigenvalues was too large:
     Diagonalizing with lowered threshold

     Davidson diagonalization with overlap
     ethr =  2.24E-05,  avg # of iterations =  3.7

     total cpu time spent up to now is        0.2 secs

     total energy              =      -0.68950765 Ry
     estimated scf accuracy    <       0.00022472 Ry

     iteration #  2     ecut=    20.00 Ry     beta= 0.70
     Davidson diagonalization with overlap
     ethr =  2.25E-05,  avg # of iterations =  1.0

     total cpu time spent up to now is        0.2 secs

     total energy              =      -0.68950468 Ry
     estimated scf accuracy    <       0.00001942 Ry

     iteration #  3     ecut=    20.00 Ry     beta= 0.70
     Davidson diagonalization with overlap
     ethr =  1.94E-06,  avg # of iterations =  1.6

     total cpu time spent up to now is        0.3 secs

     End of self-consistent calculation

          k = 0.0000 0.0000 0.1000 (   185 PWs)   bands (ev):

    -2.9448  15.7685  15.7685  16.0827  20.1217

          k = 0.0000-0.1000 0.2000 (   188 PWs)   bands (ev):

    -2.5455  13.3913  14.3312  15.5028  18.3346

          k = 0.0000-0.2000 0.3000 (   186 PWs)   bands (ev):

    -1.7487  10.0392  12.9291  14.6188  17.5201

          k = 0.0000-0.3000 0.4000 (   186 PWs)   bands (ev):

    -0.5863   6.9823  11.9351  13.8458  16.4489

          k = 0.0000-0.4000 0.5000 (   183 PWs)   bands (ev):

     0.6947   4.7253  11.4278  13.4230  15.9103

          k =-0.1000 0.1000 0.1000 (   189 PWs)   bands (ev):

    -2.7457  14.7187  15.0785  15.0785  19.3914

          k =-0.1000-0.1000 0.3000 (   186 PWs)   bands (ev):

    -1.9441  11.4930  12.1588  14.7605  17.3888

          k =-0.1000-0.2000 0.4000 (   182 PWs)   bands (ev):

    -0.9485   8.4837  10.8482  13.9184  17.4072

          k =-0.1000-0.3000 0.5000 (   183 PWs)   bands (ev):

     0.3661   5.7725  10.1194  13.2906  17.4997

          k =-0.1000 0.6000-0.4000 (   188 PWs)   bands (ev):

     1.3168   4.3430   9.8760  13.0673  17.4413

          k =-0.2000 0.2000 0.1000 (   183 PWs)   bands (ev):

    -2.1476  11.7569  13.4589  13.7721  18.8488

          k =-0.2000-0.2000 0.5000 (   181 PWs)   bands (ev):

     0.2418   6.6520   8.9359  13.4010  17.6586

          k =-0.2000 0.7000-0.4000 (   184 PWs)   bands (ev):

     1.6682   4.6185   8.1838  13.0857  18.2344

          k =-0.3000 0.3000 0.1000 (   185 PWs)   bands (ev):

    -1.1595   8.4534  12.3956  12.6336  18.0723

          k =-0.3000 0.2000 0.2000 (   182 PWs)   bands (ev):

    -1.3504   9.8176  10.9561  12.5187  19.7824

          k =-0.3000 0.7000-0.3000 (   185 PWs)   bands (ev):

     3.1958   3.1958   7.4406  13.0227  19.5963

          k =-0.4000 0.4000 0.1000 (   183 PWs)   bands (ev):

     0.1360   5.7025  11.7272  11.9076  17.4482

          k =-0.4000 0.3000 0.2000 (   181 PWs)   bands (ev):

    -0.1711   7.0203   9.7464  11.7794  19.8926

          k = 0.5000-0.5000 0.1000 (   188 PWs)   bands (ev):

     1.0490   4.2969  11.4997  11.6607  17.2234

          k = 0.5000-0.6000 0.2000 (   185 PWs)   bands (ev):

     1.1893   4.7271   9.2249  11.3990  19.7324

          k = 0.5000-0.7000 0.3000 (   181 PWs)   bands (ev):

     1.1919   5.3456   7.9567  11.3497  21.3569

          k = 0.4000-0.6000 0.3000 (   185 PWs)   bands (ev):

     2.3971   3.9196   7.4635  11.2038  21.4976

          k = 0.0000 0.0000 0.3000 (   177 PWs)   bands (ev):

    -2.1405  12.7550  12.7551  15.0092  15.7465

          k = 0.0000-0.1000 0.4000 (   185 PWs)   bands (ev):

    -1.3323  10.1506  11.2930  14.3610  15.2612

          k = 0.0000-0.2000 0.5000 (   185 PWs)   bands (ev):

    -0.1454   7.2003  10.2728  13.6919  16.1250

          k = 0.0000-0.3000 0.6000 (   186 PWs)   bands (ev):

     1.1985   4.9153   9.7554  13.3349  17.2446

          k =-0.1000-0.1000 0.5000 (   182 PWs)   bands (ev):

    -0.3165   8.3995   9.5456  14.3869  14.4459

          k =-0.1000-0.2000 0.6000 (   184 PWs)   bands (ev):

     1.0486   5.9979   8.6449  13.8936  15.4614

          k =-0.1000 0.7000-0.3000 (   193 PWs)   bands (ev):

     2.1170   4.5130   8.3797  13.7076  16.4418

          k =-0.2000 0.8000-0.3000 (   191 PWs)   bands (ev):

     2.5585   4.5122   7.5072  14.5610  15.6361

          k =-0.3000 0.3000 0.3000 (   183 PWs)   bands (ev):

    -0.3545   8.5408   8.5408  11.0802  21.5396

          k = 0.6000-0.6000 0.3000 (   184 PWs)   bands (ev):

     1.0091   5.8740   7.7600  10.5562  22.7042

          k = 0.5000-0.5000 0.3000 (   186 PWs)   bands (ev):

     2.1299   4.2913   7.4981  10.3977  22.5966

          k = 0.5000-0.6000 0.4000 (   184 PWs)   bands (ev):

     2.5470   4.5516   6.2610  10.1875  23.8934

          k = 0.0000 0.0000 0.5000 (   184 PWs)   bands (ev):

    -0.5003   9.8085   9.8085  12.4611  14.3340

          k = 0.0000-0.1000 0.6000 (   188 PWs)   bands (ev):

     0.7302   7.6353   8.7783  12.2419  14.3803

          k = 0.0000-0.2000 0.7000 (   195 PWs)   bands (ev):

     2.1906   5.3649   8.2564  12.5271  15.3003

          k =-0.1000-0.1000 0.7000 (   193 PWs)   bands (ev):

     2.1570   6.2831   7.6551  12.2659  14.2899

          k =-0.1000 0.8000-0.2000 (   192 PWs)   bands (ev):

     3.4376   4.8427   7.2909  12.8034  14.5875

          k = 0.5000-0.5000 0.5000 (   180 PWs)   bands (ev):

     4.2859   4.2859   4.2859   9.9024  26.1422

          k = 0.0000 0.0000 0.7000 (   188 PWs)   bands (ev):

     2.0223   7.7443   7.7443  10.2701  13.8507

          k = 0.0000-0.1000 0.8000 (   192 PWs)   bands (ev):

     3.6249   6.1230   7.2208  10.6327  12.9738

          k =-0.1000 0.9000-0.1000 (   188 PWs)   bands (ev):

     5.2166   5.2166   6.7506  11.1935  11.1935

          k = 0.0000 0.0000 0.9000 (   188 PWs)   bands (ev):

     5.3528   6.6962   6.6962   9.1745  10.4443

     the Fermi energy is     0.7501 ev

!    total energy              =      -0.68950473 Ry
     estimated scf accuracy    <          2.2E-10 Ry
     smearing contrib. (-TS)   =      -0.00007785 Ry
     internal energy E=F+TS    =      -0.68942688 Ry

     The total energy is F=E-TS. E is the sum of the following terms:
     one-electron contribution =       0.44762336 Ry
     hartree contribution      =       0.00118523 Ry
     xc contribution           =      -0.55688825 Ry
     ewald contribution        =      -0.58134723 Ry

     convergence has been achieved in   3 iterations

     Forces acting on atoms (cartesian axes, Ry/au):

     atom    1 type  1   force =     0.00000000    0.00000000    0.00000000

     Total force =     0.000000     Total SCF correction =     0.000000


     Computing stress (Cartesian axis) and pressure

          total   stress  (Ry/bohr**3)                   (kbar)     P=        3.75
   0.00002547  -0.00000000  -0.00000000            3.75       -0.00       -0.00
  -0.00000000   0.00002547  -0.00000000           -0.00        3.75       -0.00
  -0.00000000   0.00000000   0.00002547           -0.00        0.00        3.75


     Writing all to output data dir ./QE-outdir/li.save/ :
     XML data file, charge density, pseudopotentials, collected wavefunctions

     init_run     :      0.04s CPU      0.05s WALL (       1 calls)
     electrons    :      0.12s CPU      0.21s WALL (       1 calls)
     forces       :      0.00s CPU      0.00s WALL (       1 calls)
     stress       :      0.02s CPU      0.02s WALL (       1 calls)

     Called by init_run:
     wfcinit      :      0.03s CPU      0.04s WALL (       1 calls)
     potinit      :      0.00s CPU      0.00s WALL (       1 calls)
     hinit0       :      0.01s CPU      0.01s WALL (       1 calls)

     Called by electrons:
     c_bands      :      0.11s CPU      0.20s WALL (       4 calls)
     sum_band     :      0.01s CPU      0.01s WALL (       4 calls)
     v_of_rho     :      0.00s CPU      0.00s WALL (       4 calls)
     mix_rho      :      0.00s CPU      0.00s WALL (       4 calls)

     Called by c_bands:
     init_us_2    :      0.01s CPU      0.01s WALL (     484 calls)
     cegterg      :      0.11s CPU      0.19s WALL (     176 calls)

     Called by *egterg:
     cdiaghg      :      0.07s CPU      0.16s WALL (     594 calls)
     h_psi        :      0.05s CPU      0.06s WALL (     682 calls)
     g_psi        :      0.00s CPU      0.00s WALL (     462 calls)

     Called by h_psi:
     h_psi:calbec :      0.00s CPU      0.00s WALL (     682 calls)
     vloc_psi     :      0.05s CPU      0.05s WALL (     682 calls)
                                        0.00s GPU  (     682 calls)
     add_vuspsi   :      0.00s CPU      0.00s WALL (     682 calls)

     General routines
     calbec       :      0.01s CPU      0.01s WALL (    1430 calls)
     fft          :      0.00s CPU      0.00s WALL (      20 calls)
     ffts         :      0.00s CPU      0.00s WALL (       4 calls)
     fftw         :      0.04s CPU      0.04s WALL (    7218 calls)

     Parallel routines

     PWSCF        :      0.19s CPU      0.30s WALL


   This run was terminated on:  23:30:53  31Jan2026            

=------------------------------------------------------------------------------=
   JOB DONE.
=------------------------------------------------------------------------------=
