
     Program PWSCF v.7.5 starts on 31Jan2026 at 23:30:50 

     This program is part of the open-source Quantum ESPRESSO suite
     for quantum simulation of materials; please cite
         "P. Giannozzi et al., J. Phys.:Condens. Matter 21 395502 (2009);
         "P. Giannozzi et al., J. Phys.:Condens. Matter 29 465901 (2017);
         "P. Giannozzi et al., J. Chem. Phys. 152 154105 (2020);
          URL http://www.quantum-espresso.org", 
     in publications or presentations arising from this work. More details at
     http://www.quantum-espresso.org/quote

     Parallel version (MPI), running on     1 processors

     MPI processes distributed on     1 nodes
     0 MiB available memory on the printing compute node when the environment starts

     Waiting for input...
     Reading input from standard input
     Message from routine read_cards :
     DEPRECATED: no units specified in ATOMIC_POSITIONS card
     Message from routine read_cards :
     ATOMIC_POSITIONS: units set to alat

     Current dimensions of program PWSCF are:
     Max number of different atomic species (ntypx) = 10
     Max number of k-points (npk) =  40000
     Max angular momentum in pseudopotentials (lmaxx) =  4
     file Li.pbe-mt_fhi.UPF: wavefunction(s)  2p 4f renormalized

     IMPORTANT: XC functional enforced from input :
     Exchange-correlation= PZ
                           (   1   1   0   0   0   0   0)
     Any further DFT definition will be discarded
     Please, verify this is what you really want


     Subspace diagonalization in iterative solution of the eigenvalue problem:
     a serial algorithm will be used


     G-vector sticks info
     --------------------
     sticks:   dense  smooth     PW     G-vecs:    dense   smooth      PW
     Sum         173     173     63                 1433     1433     321

     Using Slab Decomposition



     bravais-lattice index     =            3
     lattice parameter (alat)  =       6.1600  a.u.
     unit-cell volume          =     116.8724 (a.u.)^3
     number of atoms/cell      =            1
     number of atomic types    =            1
     number of electrons       =         1.00
     number of Kohn-Sham states=            5
     kinetic-energy cutoff     =      20.0000  Ry
     charge density cutoff     =      80.0000  Ry
     scf convergence threshold =      1.0E-08
     mixing beta               =       0.7000
     number of iterations used =            8  plain     mixing
     Exchange-correlation= PZ
                           (   1   1   0   0   0   0   0)

     celldm(1)=   6.160000  celldm(2)=   0.000000  celldm(3)=   0.000000
     celldm(4)=   0.000000  celldm(5)=   0.000000  celldm(6)=   0.000000

     crystal axes: (cart. coord. in units of alat)
               a(1) = (   0.500000   0.500000   0.500000 )  
               a(2) = (  -0.500000   0.500000   0.500000 )  
               a(3) = (  -0.500000  -0.500000   0.500000 )  

     reciprocal axes: (cart. coord. in units 2 pi/alat)
               b(1) = (  1.000000  0.000000  1.000000 )  
               b(2) = ( -1.000000  1.000000  0.000000 )  
               b(3) = (  0.000000 -1.000000  1.000000 )  


     PseudoPot. # 1 for Li read from file:
     ./pseudopot/Li.pbe-mt_fhi.UPF
     MD5 check sum: 3419f5616d131090147e867976aae79b
     Pseudo is Norm-conserving + core correction, Zval =  1.0
     Generated using FHI98PP, converted with fhi2upf.x v.5.0.2
     Using radial grid of  433 points,  3 beta functions with: 
                l(1) =   0
                l(2) =   1
                l(3) =   3

     atomic species   valence    mass     pseudopotential
     Li                1.00     6.94000     Li( 1.00)

     48 Sym. Ops., with inversion, found



   Cartesian axes

     site n.     atom                  positions (alat units)
         1        Li     tau(   1) = (   0.0000000   0.0000000   0.0000000  )

     number of k points=    44  Methfessel-Paxton smearing, width (Ry)=  0.0100
                       cart. coord. in units 2pi/alat
        k(    1) = (   0.0000000   0.0000000   0.1000000), wk =   0.0120000
        k(    2) = (   0.0000000  -0.1000000   0.2000000), wk =   0.0480000
        k(    3) = (   0.0000000  -0.2000000   0.3000000), wk =   0.0480000
        k(    4) = (   0.0000000  -0.3000000   0.4000000), wk =   0.0480000
        k(    5) = (   0.0000000  -0.4000000   0.5000000), wk =   0.0480000
        k(    6) = (  -0.1000000   0.1000000   0.1000000), wk =   0.0160000
        k(    7) = (  -0.1000000  -0.1000000   0.3000000), wk =   0.0480000
        k(    8) = (  -0.1000000  -0.2000000   0.4000000), wk =   0.0960000
        k(    9) = (  -0.1000000  -0.3000000   0.5000000), wk =   0.0960000
        k(   10) = (  -0.1000000   0.6000000  -0.4000000), wk =   0.0480000
        k(   11) = (  -0.2000000   0.2000000   0.1000000), wk =   0.0480000
        k(   12) = (  -0.2000000  -0.2000000   0.5000000), wk =   0.0480000
        k(   13) = (  -0.2000000   0.7000000  -0.4000000), wk =   0.0960000
        k(   14) = (  -0.3000000   0.3000000   0.1000000), wk =   0.0480000
        k(   15) = (  -0.3000000   0.2000000   0.2000000), wk =   0.0480000
        k(   16) = (  -0.3000000   0.7000000  -0.3000000), wk =   0.0160000
        k(   17) = (  -0.4000000   0.4000000   0.1000000), wk =   0.0480000
        k(   18) = (  -0.4000000   0.3000000   0.2000000), wk =   0.0960000
        k(   19) = (   0.5000000  -0.5000000   0.1000000), wk =   0.0240000
        k(   20) = (   0.5000000  -0.6000000   0.2000000), wk =   0.0960000
        k(   21) = (   0.5000000  -0.7000000   0.3000000), wk =   0.0480000
        k(   22) = (   0.4000000  -0.6000000   0.3000000), wk =   0.0480000
        k(   23) = (   0.0000000   0.0000000   0.3000000), wk =   0.0120000
        k(   24) = (   0.0000000  -0.1000000   0.4000000), wk =   0.0480000
        k(   25) = (   0.0000000  -0.2000000   0.5000000), wk =   0.0480000
        k(   26) = (   0.0000000  -0.3000000   0.6000000), wk =   0.0480000
        k(   27) = (  -0.1000000  -0.1000000   0.5000000), wk =   0.0480000
        k(   28) = (  -0.1000000  -0.2000000   0.6000000), wk =   0.0960000
        k(   29) = (  -0.1000000   0.7000000  -0.3000000), wk =   0.0480000
        k(   30) = (  -0.2000000   0.8000000  -0.3000000), wk =   0.0480000
        k(   31) = (  -0.3000000   0.3000000   0.3000000), wk =   0.0160000
        k(   32) = (   0.6000000  -0.6000000   0.3000000), wk =   0.0480000
        k(   33) = (   0.5000000  -0.5000000   0.3000000), wk =   0.0240000
        k(   34) = (   0.5000000  -0.6000000   0.4000000), wk =   0.0480000
        k(   35) = (   0.0000000   0.0000000   0.5000000), wk =   0.0120000
        k(   36) = (   0.0000000  -0.1000000   0.6000000), wk =   0.0480000
        k(   37) = (   0.0000000  -0.2000000   0.7000000), wk =   0.0480000
        k(   38) = (  -0.1000000  -0.1000000   0.7000000), wk =   0.0480000
        k(   39) = (  -0.1000000   0.8000000  -0.2000000), wk =   0.0480000
        k(   40) = (   0.5000000  -0.5000000   0.5000000), wk =   0.0040000
        k(   41) = (   0.0000000   0.0000000   0.7000000), wk =   0.0120000
        k(   42) = (   0.0000000  -0.1000000   0.8000000), wk =   0.0480000
        k(   43) = (  -0.1000000   0.9000000  -0.1000000), wk =   0.0160000
        k(   44) = (   0.0000000   0.0000000   0.9000000), wk =   0.0120000

     Dense  grid:     1433 G-vectors     FFT dimensions: (  15,  15,  15)

     Estimated max dynamical RAM per process >       1.81 MB

     Initial potential from superposition of free atoms

     starting charge       0.9960, renormalised to       1.0000
     Starting wfcs are   16 randomized atomic wfcs

     total cpu time spent up to now is        0.1 secs

     Self-consistent Calculation

     iteration #  1     ecut=    20.00 Ry     beta= 0.70
     Davidson diagonalization with overlap
     ethr =  1.00E-02,  avg # of iterations =  4.5

     Threshold (ethr) on eigenvalues was too large:
     Diagonalizing with lowered threshold

     Davidson diagonalization with overlap
     ethr =  2.50E-05,  avg # of iterations =  3.6

     total cpu time spent up to now is        0.2 secs

     total energy              =      -0.68918819 Ry
     estimated scf accuracy    <       0.00025246 Ry

     iteration #  2     ecut=    20.00 Ry     beta= 0.70
     Davidson diagonalization with overlap
     ethr =  2.52E-05,  avg # of iterations =  1.1

     total cpu time spent up to now is        0.2 secs

     total energy              =      -0.68918476 Ry
     estimated scf accuracy    <       0.00002182 Ry

     iteration #  3     ecut=    20.00 Ry     beta= 0.70
     Davidson diagonalization with overlap
     ethr =  2.18E-06,  avg # of iterations =  1.5

     total cpu time spent up to now is        0.3 secs

     End of self-consistent calculation

          k = 0.0000 0.0000 0.1000 (   181 PWs)   bands (ev):

    -2.8642  16.4302  16.4303  16.7628  20.8598

          k = 0.0000-0.1000 0.2000 (   173 PWs)   bands (ev):

    -2.4583  13.9614  14.9362  16.1570  19.0328

          k = 0.0000-0.2000 0.3000 (   177 PWs)   bands (ev):

    -1.6488  10.4970  13.4825  15.2317  18.1860

          k = 0.0000-0.3000 0.4000 (   178 PWs)   bands (ev):

    -0.4680   7.3518  12.4527  14.4274  17.0792

          k = 0.0000-0.4000 0.5000 (   182 PWs)   bands (ev):

     0.8246   5.0471  11.9274  13.9875  16.5228

          k =-0.1000 0.1000 0.1000 (   177 PWs)   bands (ev):

    -2.6618  15.3521  15.7043  15.7043  20.1309

          k =-0.1000-0.1000 0.3000 (   172 PWs)   bands (ev):

    -1.8469  11.9802  12.7022  15.3834  18.0559

          k =-0.1000-0.2000 0.4000 (   176 PWs)   bands (ev):

    -0.8343   8.8808  11.3448  14.5035  18.0832

          k =-0.1000-0.3000 0.5000 (   177 PWs)   bands (ev):

     0.5007   6.0994  10.5911  13.8504  18.1931

          k =-0.1000 0.6000-0.4000 (   174 PWs)   bands (ev):

     1.4571   4.6476  10.3398  13.6188  18.1360

          k =-0.2000 0.2000 0.1000 (   175 PWs)   bands (ev):

    -2.0544  12.2655  14.0466  14.3401  19.5789

          k =-0.2000-0.2000 0.5000 (   175 PWs)   bands (ev):

     0.3784   6.9704   9.4029  13.9667  18.3362

          k =-0.2000 0.7000-0.4000 (   175 PWs)   bands (ev):

     1.8297   4.8841   8.6337  13.6408  18.9414

          k =-0.3000 0.3000 0.1000 (   177 PWs)   bands (ev):

    -1.0501   8.8593  12.9496  13.1573  18.7708

          k =-0.3000 0.2000 0.2000 (   175 PWs)   bands (ev):

    -1.2436  10.2431  11.4539  13.0758  20.5611

          k =-0.3000 0.7000-0.3000 (   179 PWs)   bands (ev):

     3.3983   3.3983   7.8922  13.5775  20.3368

          k =-0.4000 0.4000 0.1000 (   179 PWs)   bands (ev):

     0.2639   6.0365  12.2596  12.4046  18.1225

          k =-0.4000 0.3000 0.2000 (   175 PWs)   bands (ev):

    -0.0437   7.3655  10.1996  12.3219  20.6714

          k = 0.5000-0.5000 0.1000 (   174 PWs)   bands (ev):

     1.1805   4.6099  12.0258  12.1487  17.8893

          k = 0.5000-0.6000 0.2000 (   173 PWs)   bands (ev):

     1.3355   5.0207   9.6584  11.9339  20.5031

          k = 0.5000-0.7000 0.3000 (   173 PWs)   bands (ev):

     1.3466   5.6196   8.3779  11.8915  22.1676

          k = 0.4000-0.6000 0.3000 (   175 PWs)   bands (ev):

     2.5729   4.1572   7.8743  11.7457  22.3332

          k = 0.0000 0.0000 0.3000 (   177 PWs)   bands (ev):

    -2.0466  13.2959  13.2959  15.6695  16.3413

          k = 0.0000-0.1000 0.4000 (   175 PWs)   bands (ev):

    -1.2237  10.6035  11.7826  14.9786  15.8752

          k = 0.0000-0.2000 0.5000 (   177 PWs)   bands (ev):

    -0.0157   7.5653  10.7274  14.2935  16.7663

          k = 0.0000-0.3000 0.6000 (   175 PWs)   bands (ev):

     1.3454   5.2289  10.1919  13.9277  17.9291

          k =-0.1000-0.1000 0.5000 (   178 PWs)   bands (ev):

    -0.1881   8.7792   9.9984  14.9492  15.0914

          k =-0.1000-0.2000 0.6000 (   181 PWs)   bands (ev):

     1.2031   6.3108   9.0727  14.4947  16.0821

          k =-0.1000 0.7000-0.3000 (   177 PWs)   bands (ev):

     2.2842   4.7991   8.7997  14.3059  17.0958

          k =-0.2000 0.8000-0.3000 (   181 PWs)   bands (ev):

     2.7468   4.7594   7.9366  15.1935  16.2431

          k =-0.3000 0.3000 0.3000 (   177 PWs)   bands (ev):

    -0.2296   8.9218   8.9218  11.6522  22.3805

          k = 0.6000-0.6000 0.3000 (   178 PWs)   bands (ev):

     1.1603   6.1754   8.1144  11.1284  23.5862

          k = 0.5000-0.5000 0.3000 (   172 PWs)   bands (ev):

     2.2969   4.5596   7.8437  10.9701  23.4687

          k = 0.5000-0.6000 0.4000 (   171 PWs)   bands (ev):

     2.7342   4.7989   6.5779  10.7707  24.8248

          k = 0.0000 0.0000 0.5000 (   168 PWs)   bands (ev):

    -0.3739  10.2465  10.2465  12.9484  15.0100

          k = 0.0000-0.1000 0.6000 (   178 PWs)   bands (ev):

     0.8829   8.0014   9.1806  12.7394  15.0533

          k = 0.0000-0.2000 0.7000 (   178 PWs)   bands (ev):

     2.3704   5.6722   8.6410  13.0755  15.9613

          k =-0.1000-0.1000 0.7000 (   177 PWs)   bands (ev):

     2.3433   6.5917   8.0432  12.7574  14.9542

          k =-0.1000 0.8000-0.2000 (   181 PWs)   bands (ev):

     3.6490   5.1144   7.6736  13.3315  15.1589

          k = 0.5000-0.5000 0.5000 (   180 PWs)   bands (ev):

     4.5240   4.5240   4.5240  10.5016  27.1531

          k = 0.0000 0.0000 0.7000 (   180 PWs)   bands (ev):

     2.2088   8.1106   8.1106  10.6857  14.5119

          k = 0.0000-0.1000 0.8000 (   178 PWs)   bands (ev):

     3.8517   6.4386   7.5695  11.0733  13.5150

          k =-0.1000 0.9000-0.1000 (   176 PWs)   bands (ev):

     5.4895   5.4895   7.1019  11.6495  11.6495

          k = 0.0000 0.0000 0.9000 (   180 PWs)   bands (ev):

     5.6352   7.0272   7.0272   9.5542  10.8771

     the Fermi energy is     0.8930 ev

!    total energy              =      -0.68918481 Ry
     estimated scf accuracy    <          2.2E-10 Ry
     smearing contrib. (-TS)   =      -0.00007230 Ry
     internal energy E=F+TS    =      -0.68911251 Ry

     The total energy is F=E-TS. E is the sum of the following terms:
     one-electron contribution =       0.46393105 Ry
     hartree contribution      =       0.00127305 Ry
     xc contribution           =      -0.56353194 Ry
     ewald contribution        =      -0.59078468 Ry

     convergence has been achieved in   3 iterations

     Forces acting on atoms (cartesian axes, Ry/au):

     atom    1 type  1   force =     0.00000000    0.00000000    0.00000000

     Total force =     0.000000     Total SCF correction =     0.000000


     Computing stress (Cartesian axis) and pressure

          total   stress  (Ry/bohr**3)                   (kbar)     P=       12.33
   0.00008382  -0.00000000   0.00000000           12.33       -0.00        0.00
   0.00000000   0.00008382   0.00000000            0.00       12.33        0.00
  -0.00000000   0.00000000   0.00008382           -0.00        0.00       12.33


     Writing all to output data dir ./QE-outdir/li.save/ :
     XML data file, charge density, pseudopotentials, collected wavefunctions

     init_run     :      0.04s CPU      0.05s WALL (       1 calls)
     electrons    :      0.12s CPU      0.21s WALL (       1 calls)
     forces       :      0.00s CPU      0.00s WALL (       1 calls)
     stress       :      0.02s CPU      0.02s WALL (       1 calls)

     Called by init_run:
     wfcinit      :      0.03s CPU      0.04s WALL (       1 calls)
     potinit      :      0.00s CPU      0.00s WALL (       1 calls)
     hinit0       :      0.01s CPU      0.01s WALL (       1 calls)

     Called by electrons:
     c_bands      :      0.11s CPU      0.20s WALL (       4 calls)
     sum_band     :      0.01s CPU      0.01s WALL (       4 calls)
     v_of_rho     :      0.00s CPU      0.00s WALL (       4 calls)
     mix_rho      :      0.00s CPU      0.00s WALL (       4 calls)

     Called by c_bands:
     init_us_2    :      0.01s CPU      0.01s WALL (     484 calls)
     cegterg      :      0.11s CPU      0.19s WALL (     176 calls)

     Called by *egterg:
     cdiaghg      :      0.07s CPU      0.17s WALL (     606 calls)
     h_psi        :      0.05s CPU      0.05s WALL (     694 calls)
     g_psi        :      0.00s CPU      0.00s WALL (     474 calls)

     Called by h_psi:
     h_psi:calbec :      0.00s CPU      0.00s WALL (     694 calls)
     vloc_psi     :      0.05s CPU      0.05s WALL (     694 calls)
                                        0.00s GPU  (     694 calls)
     add_vuspsi   :      0.00s CPU      0.00s WALL (     694 calls)

     General routines
     calbec       :      0.01s CPU      0.01s WALL (    1442 calls)
     fft          :      0.00s CPU      0.00s WALL (      20 calls)
     ffts         :      0.00s CPU      0.00s WALL (       4 calls)
     fftw         :      0.04s CPU      0.04s WALL (    7194 calls)

     Parallel routines

     PWSCF        :      0.19s CPU      0.30s WALL


   This run was terminated on:  23:30:50  31Jan2026            

=------------------------------------------------------------------------------=
   JOB DONE.
=------------------------------------------------------------------------------=
