
     Program PWSCF v.7.5 starts on 31Jan2026 at 23:30:54 

     This program is part of the open-source Quantum ESPRESSO suite
     for quantum simulation of materials; please cite
         "P. Giannozzi et al., J. Phys.:Condens. Matter 21 395502 (2009);
         "P. Giannozzi et al., J. Phys.:Condens. Matter 29 465901 (2017);
         "P. Giannozzi et al., J. Chem. Phys. 152 154105 (2020);
          URL http://www.quantum-espresso.org", 
     in publications or presentations arising from this work. More details at
     http://www.quantum-espresso.org/quote

     Parallel version (MPI), running on     1 processors

     MPI processes distributed on     1 nodes
     0 MiB available memory on the printing compute node when the environment starts

     Waiting for input...
     Reading input from standard input
     Message from routine read_cards :
     DEPRECATED: no units specified in ATOMIC_POSITIONS card
     Message from routine read_cards :
     ATOMIC_POSITIONS: units set to alat

     Current dimensions of program PWSCF are:
     Max number of different atomic species (ntypx) = 10
     Max number of k-points (npk) =  40000
     Max angular momentum in pseudopotentials (lmaxx) =  4
     file Li.pbe-mt_fhi.UPF: wavefunction(s)  2p 4f renormalized

     IMPORTANT: XC functional enforced from input :
     Exchange-correlation= PZ
                           (   1   1   0   0   0   0   0)
     Any further DFT definition will be discarded
     Please, verify this is what you really want


     Subspace diagonalization in iterative solution of the eigenvalue problem:
     a serial algorithm will be used


     G-vector sticks info
     --------------------
     sticks:   dense  smooth     PW     G-vecs:    dense   smooth      PW
     Sum         173     173     63                 1505     1505     321

     Using Slab Decomposition



     bravais-lattice index     =            3
     lattice parameter (alat)  =       6.3100  a.u.
     unit-cell volume          =     125.6198 (a.u.)^3
     number of atoms/cell      =            1
     number of atomic types    =            1
     number of electrons       =         1.00
     number of Kohn-Sham states=            5
     kinetic-energy cutoff     =      20.0000  Ry
     charge density cutoff     =      80.0000  Ry
     scf convergence threshold =      1.0E-08
     mixing beta               =       0.7000
     number of iterations used =            8  plain     mixing
     Exchange-correlation= PZ
                           (   1   1   0   0   0   0   0)

     celldm(1)=   6.310000  celldm(2)=   0.000000  celldm(3)=   0.000000
     celldm(4)=   0.000000  celldm(5)=   0.000000  celldm(6)=   0.000000

     crystal axes: (cart. coord. in units of alat)
               a(1) = (   0.500000   0.500000   0.500000 )  
               a(2) = (  -0.500000   0.500000   0.500000 )  
               a(3) = (  -0.500000  -0.500000   0.500000 )  

     reciprocal axes: (cart. coord. in units 2 pi/alat)
               b(1) = (  1.000000  0.000000  1.000000 )  
               b(2) = ( -1.000000  1.000000  0.000000 )  
               b(3) = (  0.000000 -1.000000  1.000000 )  


     PseudoPot. # 1 for Li read from file:
     ./pseudopot/Li.pbe-mt_fhi.UPF
     MD5 check sum: 3419f5616d131090147e867976aae79b
     Pseudo is Norm-conserving + core correction, Zval =  1.0
     Generated using FHI98PP, converted with fhi2upf.x v.5.0.2
     Using radial grid of  433 points,  3 beta functions with: 
                l(1) =   0
                l(2) =   1
                l(3) =   3

     atomic species   valence    mass     pseudopotential
     Li                1.00     6.94000     Li( 1.00)

     48 Sym. Ops., with inversion, found



   Cartesian axes

     site n.     atom                  positions (alat units)
         1        Li     tau(   1) = (   0.0000000   0.0000000   0.0000000  )

     number of k points=    44  Methfessel-Paxton smearing, width (Ry)=  0.0100
                       cart. coord. in units 2pi/alat
        k(    1) = (   0.0000000   0.0000000   0.1000000), wk =   0.0120000
        k(    2) = (   0.0000000  -0.1000000   0.2000000), wk =   0.0480000
        k(    3) = (   0.0000000  -0.2000000   0.3000000), wk =   0.0480000
        k(    4) = (   0.0000000  -0.3000000   0.4000000), wk =   0.0480000
        k(    5) = (   0.0000000  -0.4000000   0.5000000), wk =   0.0480000
        k(    6) = (  -0.1000000   0.1000000   0.1000000), wk =   0.0160000
        k(    7) = (  -0.1000000  -0.1000000   0.3000000), wk =   0.0480000
        k(    8) = (  -0.1000000  -0.2000000   0.4000000), wk =   0.0960000
        k(    9) = (  -0.1000000  -0.3000000   0.5000000), wk =   0.0960000
        k(   10) = (  -0.1000000   0.6000000  -0.4000000), wk =   0.0480000
        k(   11) = (  -0.2000000   0.2000000   0.1000000), wk =   0.0480000
        k(   12) = (  -0.2000000  -0.2000000   0.5000000), wk =   0.0480000
        k(   13) = (  -0.2000000   0.7000000  -0.4000000), wk =   0.0960000
        k(   14) = (  -0.3000000   0.3000000   0.1000000), wk =   0.0480000
        k(   15) = (  -0.3000000   0.2000000   0.2000000), wk =   0.0480000
        k(   16) = (  -0.3000000   0.7000000  -0.3000000), wk =   0.0160000
        k(   17) = (  -0.4000000   0.4000000   0.1000000), wk =   0.0480000
        k(   18) = (  -0.4000000   0.3000000   0.2000000), wk =   0.0960000
        k(   19) = (   0.5000000  -0.5000000   0.1000000), wk =   0.0240000
        k(   20) = (   0.5000000  -0.6000000   0.2000000), wk =   0.0960000
        k(   21) = (   0.5000000  -0.7000000   0.3000000), wk =   0.0480000
        k(   22) = (   0.4000000  -0.6000000   0.3000000), wk =   0.0480000
        k(   23) = (   0.0000000   0.0000000   0.3000000), wk =   0.0120000
        k(   24) = (   0.0000000  -0.1000000   0.4000000), wk =   0.0480000
        k(   25) = (   0.0000000  -0.2000000   0.5000000), wk =   0.0480000
        k(   26) = (   0.0000000  -0.3000000   0.6000000), wk =   0.0480000
        k(   27) = (  -0.1000000  -0.1000000   0.5000000), wk =   0.0480000
        k(   28) = (  -0.1000000  -0.2000000   0.6000000), wk =   0.0960000
        k(   29) = (  -0.1000000   0.7000000  -0.3000000), wk =   0.0480000
        k(   30) = (  -0.2000000   0.8000000  -0.3000000), wk =   0.0480000
        k(   31) = (  -0.3000000   0.3000000   0.3000000), wk =   0.0160000
        k(   32) = (   0.6000000  -0.6000000   0.3000000), wk =   0.0480000
        k(   33) = (   0.5000000  -0.5000000   0.3000000), wk =   0.0240000
        k(   34) = (   0.5000000  -0.6000000   0.4000000), wk =   0.0480000
        k(   35) = (   0.0000000   0.0000000   0.5000000), wk =   0.0120000
        k(   36) = (   0.0000000  -0.1000000   0.6000000), wk =   0.0480000
        k(   37) = (   0.0000000  -0.2000000   0.7000000), wk =   0.0480000
        k(   38) = (  -0.1000000  -0.1000000   0.7000000), wk =   0.0480000
        k(   39) = (  -0.1000000   0.8000000  -0.2000000), wk =   0.0480000
        k(   40) = (   0.5000000  -0.5000000   0.5000000), wk =   0.0040000
        k(   41) = (   0.0000000   0.0000000   0.7000000), wk =   0.0120000
        k(   42) = (   0.0000000  -0.1000000   0.8000000), wk =   0.0480000
        k(   43) = (  -0.1000000   0.9000000  -0.1000000), wk =   0.0160000
        k(   44) = (   0.0000000   0.0000000   0.9000000), wk =   0.0120000

     Dense  grid:     1505 G-vectors     FFT dimensions: (  15,  15,  15)

     Estimated max dynamical RAM per process >       1.89 MB

     Initial potential from superposition of free atoms

     starting charge       0.9960, renormalised to       1.0000
     Starting wfcs are   16 randomized atomic wfcs

     total cpu time spent up to now is        0.1 secs

     Self-consistent Calculation

     iteration #  1     ecut=    20.00 Ry     beta= 0.70
     Davidson diagonalization with overlap
     ethr =  1.00E-02,  avg # of iterations =  4.2

     Threshold (ethr) on eigenvalues was too large:
     Diagonalizing with lowered threshold

     Davidson diagonalization with overlap
     ethr =  2.12E-05,  avg # of iterations =  3.9

     total cpu time spent up to now is        0.2 secs

     total energy              =      -0.68954871 Ry
     estimated scf accuracy    <       0.00021243 Ry

     iteration #  2     ecut=    20.00 Ry     beta= 0.70
     Davidson diagonalization with overlap
     ethr =  2.12E-05,  avg # of iterations =  1.0

     total cpu time spent up to now is        0.2 secs

     total energy              =      -0.68954592 Ry
     estimated scf accuracy    <       0.00001842 Ry

     iteration #  3     ecut=    20.00 Ry     beta= 0.70
     Davidson diagonalization with overlap
     ethr =  1.84E-06,  avg # of iterations =  1.5

     total cpu time spent up to now is        0.3 secs

     End of self-consistent calculation

          k = 0.0000 0.0000 0.1000 (   193 PWs)   bands (ev):

    -2.9819  15.4482  15.4482  15.7556  19.7661

          k = 0.0000-0.1000 0.2000 (   190 PWs)   bands (ev):

    -2.5857  13.1171  14.0408  15.1880  17.9981

          k = 0.0000-0.2000 0.3000 (   190 PWs)   bands (ev):

    -1.7957   9.8191  12.6629  14.3233  17.1994

          k = 0.0000-0.3000 0.4000 (   188 PWs)   bands (ev):

    -0.6424   6.8049  11.6858  13.5659  16.1452

          k = 0.0000-0.4000 0.5000 (   185 PWs)   bands (ev):

     0.6323   4.5712  11.1873  13.1512  15.6152

          k =-0.1000 0.1000 0.1000 (   189 PWs)   bands (ev):

    -2.7843  14.4145  14.7776  14.7776  19.0356

          k =-0.1000-0.1000 0.3000 (   189 PWs)   bands (ev):

    -1.9894  11.2585  11.8976  14.4608  17.0678

          k =-0.1000-0.2000 0.4000 (   186 PWs)   bands (ev):

    -1.0025   8.2925  10.6092  13.6364  17.0815

          k =-0.1000-0.3000 0.5000 (   187 PWs)   bands (ev):

     0.3017   5.6155   9.8924  13.0208  17.1655

          k =-0.1000 0.6000-0.4000 (   191 PWs)   bands (ev):

     1.2495   4.1970   9.6531  12.8020  17.1064

          k =-0.2000 0.2000 0.1000 (   192 PWs)   bands (ev):

    -2.1913  11.5113  13.1757  13.4985  18.4973

          k =-0.2000-0.2000 0.5000 (   187 PWs)   bands (ev):

     0.1765   6.4987   8.7112  13.1280  17.3322

          k =-0.2000 0.7000-0.4000 (   192 PWs)   bands (ev):

     1.5907   4.4908   7.9676  12.8184  17.8938

          k =-0.3000 0.3000 0.1000 (   185 PWs)   bands (ev):

    -1.2111   8.2582  12.1294  12.3815  17.7360

          k =-0.3000 0.2000 0.2000 (   187 PWs)   bands (ev):

    -1.4007   9.6125  10.7157  12.2513  19.4074

          k =-0.3000 0.7000-0.3000 (   191 PWs)   bands (ev):

     3.0983   3.0983   7.2239  12.7557  19.2393

          k =-0.4000 0.4000 0.1000 (   187 PWs)   bands (ev):

     0.0749   5.5422  11.4710  11.6683  17.1234

          k =-0.4000 0.3000 0.2000 (   187 PWs)   bands (ev):

    -0.2318   6.8539   9.5277  11.5189  19.5171

          k = 0.5000-0.5000 0.1000 (   188 PWs)   bands (ev):

     0.9862   4.1471  11.2472  11.4257  16.9027

          k = 0.5000-0.6000 0.2000 (   187 PWs)   bands (ev):

     1.1193   4.5860   9.0162  11.1425  19.3610

          k = 0.5000-0.7000 0.3000 (   187 PWs)   bands (ev):

     1.1178   5.2137   7.7536  11.0896  20.9664

          k = 0.4000-0.6000 0.3000 (   189 PWs)   bands (ev):

     2.3126   3.8053   7.2656  10.9443  21.0940

          k = 0.0000 0.0000 0.3000 (   189 PWs)   bands (ev):

    -2.1846  12.4933  12.4933  14.6909  15.4599

          k = 0.0000-0.1000 0.4000 (   190 PWs)   bands (ev):

    -1.3835   9.9326  11.0571  14.0623  14.9666

          k = 0.0000-0.2000 0.5000 (   189 PWs)   bands (ev):

    -0.2072   7.0249  10.0542  13.4018  15.8156

          k = 0.0000-0.3000 0.6000 (   188 PWs)   bands (ev):

     1.1281   4.7650   9.5454  13.0493  16.9151

          k =-0.1000-0.1000 0.5000 (   186 PWs)   bands (ev):

    -0.3776   8.2164   9.3277  14.1159  14.1353

          k =-0.1000-0.2000 0.6000 (   188 PWs)   bands (ev):

     0.9746   5.8473   8.4390  13.6037  15.1629

          k =-0.1000 0.7000-0.3000 (   193 PWs)   bands (ev):

     2.0370   4.3755   8.1782  13.4198  16.1276

          k =-0.2000 0.8000-0.3000 (   197 PWs)   bands (ev):

     2.4679   4.3935   7.3012  14.2562  15.3439

          k =-0.3000 0.3000 0.3000 (   186 PWs)   bands (ev):

    -0.4138   8.3573   8.3573  10.8056  21.1346

          k = 0.6000-0.6000 0.3000 (   184 PWs)   bands (ev):

     0.9368   5.7290   7.5896  10.2820  22.2818

          k = 0.5000-0.5000 0.3000 (   186 PWs)   bands (ev):

     2.0498   4.1625   7.3320  10.1236  22.1769

          k = 0.5000-0.6000 0.4000 (   190 PWs)   bands (ev):

     2.4570   4.4327   6.1084   9.9081  23.4447

          k = 0.0000 0.0000 0.5000 (   184 PWs)   bands (ev):

    -0.5602   9.5983   9.5983  12.2264  14.0094

          k = 0.0000-0.1000 0.6000 (   193 PWs)   bands (ev):

     0.6572   7.4592   8.5847  12.0021  14.0562

          k = 0.0000-0.2000 0.7000 (   198 PWs)   bands (ev):

     2.1045   5.2171   8.0716  12.2626  14.9830

          k =-0.1000-0.1000 0.7000 (   197 PWs)   bands (ev):

     2.0678   6.1346   7.4685  12.0292  13.9701

          k =-0.1000 0.8000-0.2000 (   198 PWs)   bands (ev):

     3.3360   4.7119   7.1067  12.5488  14.3123

          k = 0.5000-0.5000 0.5000 (   180 PWs)   bands (ev):

     4.1714   4.1714   4.1714   9.6152  25.6555

          k = 0.0000 0.0000 0.7000 (   196 PWs)   bands (ev):

     1.9328   7.5675   7.5675  10.0700  13.5315

          k = 0.0000-0.1000 0.8000 (   198 PWs)   bands (ev):

     3.5160   5.9713   7.0526  10.4206  12.7126

          k =-0.1000 0.9000-0.1000 (   197 PWs)   bands (ev):

     5.0852   5.0852   6.5813  10.9738  10.9739

          k = 0.0000 0.0000 0.9000 (   188 PWs)   bands (ev):

     5.2170   6.5371   6.5371   8.9917  10.2360

     the Fermi energy is     0.6821 ev

!    total energy              =      -0.68954597 Ry
     estimated scf accuracy    <          1.8E-10 Ry
     smearing contrib. (-TS)   =      -0.00007830 Ry
     internal energy E=F+TS    =      -0.68946767 Ry

     The total energy is F=E-TS. E is the sum of the following terms:
     one-electron contribution =       0.43978461 Ry
     hartree contribution      =       0.00114244 Ry
     xc contribution           =      -0.55365405 Ry
     ewald contribution        =      -0.57674068 Ry

     convergence has been achieved in   3 iterations

     Forces acting on atoms (cartesian axes, Ry/au):

     atom    1 type  1   force =     0.00000000    0.00000000    0.00000000

     Total force =     0.000000     Total SCF correction =     0.000000


     Computing stress (Cartesian axis) and pressure

          total   stress  (Ry/bohr**3)                   (kbar)     P=       -0.02
  -0.00000017   0.00000000  -0.00000000           -0.02        0.00       -0.00
   0.00000000  -0.00000017   0.00000000            0.00       -0.02        0.00
  -0.00000000   0.00000000  -0.00000017           -0.00        0.00       -0.02


     Writing all to output data dir ./QE-outdir/li.save/ :
     XML data file, charge density, pseudopotentials, collected wavefunctions

     init_run     :      0.04s CPU      0.06s WALL (       1 calls)
     electrons    :      0.13s CPU      0.22s WALL (       1 calls)
     forces       :      0.00s CPU      0.00s WALL (       1 calls)
     stress       :      0.02s CPU      0.02s WALL (       1 calls)

     Called by init_run:
     wfcinit      :      0.03s CPU      0.04s WALL (       1 calls)
     potinit      :      0.00s CPU      0.00s WALL (       1 calls)
     hinit0       :      0.01s CPU      0.01s WALL (       1 calls)

     Called by electrons:
     c_bands      :      0.11s CPU      0.20s WALL (       4 calls)
     sum_band     :      0.01s CPU      0.01s WALL (       4 calls)
     v_of_rho     :      0.00s CPU      0.00s WALL (       4 calls)
     mix_rho      :      0.00s CPU      0.00s WALL (       4 calls)

     Called by c_bands:
     init_us_2    :      0.01s CPU      0.01s WALL (     484 calls)
     cegterg      :      0.11s CPU      0.20s WALL (     176 calls)

     Called by *egterg:
     cdiaghg      :      0.07s CPU      0.17s WALL (     600 calls)
     h_psi        :      0.05s CPU      0.06s WALL (     688 calls)
     g_psi        :      0.00s CPU      0.00s WALL (     468 calls)

     Called by h_psi:
     h_psi:calbec :      0.00s CPU      0.00s WALL (     688 calls)
     vloc_psi     :      0.05s CPU      0.05s WALL (     688 calls)
                                        0.00s GPU  (     688 calls)
     add_vuspsi   :      0.00s CPU      0.00s WALL (     688 calls)

     General routines
     calbec       :      0.01s CPU      0.01s WALL (    1436 calls)
     fft          :      0.00s CPU      0.00s WALL (      20 calls)
     ffts         :      0.00s CPU      0.00s WALL (       4 calls)
     fftw         :      0.04s CPU      0.05s WALL (    7260 calls)

     Parallel routines

     PWSCF        :      0.20s CPU      0.31s WALL


   This run was terminated on:  23:30:55  31Jan2026            

=------------------------------------------------------------------------------=
   JOB DONE.
=------------------------------------------------------------------------------=
