
     Program PWSCF v.7.5 starts on 26Jan2026 at 14: 5:40 

     This program is part of the open-source Quantum ESPRESSO suite
     for quantum simulation of materials; please cite
         "P. Giannozzi et al., J. Phys.:Condens. Matter 21 395502 (2009);
         "P. Giannozzi et al., J. Phys.:Condens. Matter 29 465901 (2017);
         "P. Giannozzi et al., J. Chem. Phys. 152 154105 (2020);
          URL http://www.quantum-espresso.org", 
     in publications or presentations arising from this work. More details at
     http://www.quantum-espresso.org/quote

     Parallel version (MPI), running on     1 processors

     MPI processes distributed on     1 nodes
     0 MiB available memory on the printing compute node when the environment starts

     Waiting for input...
     Reading input from standard input
     Message from routine read_cards :
     DEPRECATED: no units specified in ATOMIC_POSITIONS card
     Message from routine read_cards :
     ATOMIC_POSITIONS: units set to alat

     Current dimensions of program PWSCF are:
     Max number of different atomic species (ntypx) = 10
     Max number of k-points (npk) =  40000
     Max angular momentum in pseudopotentials (lmaxx) =  4
     file Li.pbe-mt_fhi.UPF: wavefunction(s)  2p 4f renormalized

     IMPORTANT: XC functional enforced from input :
     Exchange-correlation= PZ
                           (   1   1   0   0   0   0   0)
     Any further DFT definition will be discarded
     Please, verify this is what you really want


     Subspace diagonalization in iterative solution of the eigenvalue problem:
     a serial algorithm will be used


     G-vector sticks info
     --------------------
     sticks:   dense  smooth     PW     G-vecs:    dense   smooth      PW
     Sum         217     217     77                 1985     1985     429

     Using Slab Decomposition



     bravais-lattice index     =            3
     lattice parameter (alat)  =       6.9500  a.u.
     unit-cell volume          =     167.8512 (a.u.)^3
     number of atoms/cell      =            1
     number of atomic types    =            1
     number of electrons       =         1.00
     number of Kohn-Sham states=            5
     kinetic-energy cutoff     =      20.0000  Ry
     charge density cutoff     =      80.0000  Ry
     scf convergence threshold =      1.0E-08
     mixing beta               =       0.7000
     number of iterations used =            8  plain     mixing
     Exchange-correlation= PZ
                           (   1   1   0   0   0   0   0)

     celldm(1)=   6.950000  celldm(2)=   0.000000  celldm(3)=   0.000000
     celldm(4)=   0.000000  celldm(5)=   0.000000  celldm(6)=   0.000000

     crystal axes: (cart. coord. in units of alat)
               a(1) = (   0.500000   0.500000   0.500000 )  
               a(2) = (  -0.500000   0.500000   0.500000 )  
               a(3) = (  -0.500000  -0.500000   0.500000 )  

     reciprocal axes: (cart. coord. in units 2 pi/alat)
               b(1) = (  1.000000  0.000000  1.000000 )  
               b(2) = ( -1.000000  1.000000  0.000000 )  
               b(3) = (  0.000000 -1.000000  1.000000 )  


     PseudoPot. # 1 for Li read from file:
     ./pseudopot/Li.pbe-mt_fhi.UPF
     MD5 check sum: 3419f5616d131090147e867976aae79b
     Pseudo is Norm-conserving + core correction, Zval =  1.0
     Generated using FHI98PP, converted with fhi2upf.x v.5.0.2
     Using radial grid of  433 points,  3 beta functions with: 
                l(1) =   0
                l(2) =   1
                l(3) =   3

     atomic species   valence    mass     pseudopotential
     Li                1.00     6.94000     Li( 1.00)

     48 Sym. Ops., with inversion, found



   Cartesian axes

     site n.     atom                  positions (alat units)
         1        Li     tau(   1) = (   0.0000000   0.0000000   0.0000000  )

     number of k points=    44  Methfessel-Paxton smearing, width (Ry)=  0.0100
                       cart. coord. in units 2pi/alat
        k(    1) = (   0.0000000   0.0000000   0.1000000), wk =   0.0120000
        k(    2) = (   0.0000000  -0.1000000   0.2000000), wk =   0.0480000
        k(    3) = (   0.0000000  -0.2000000   0.3000000), wk =   0.0480000
        k(    4) = (   0.0000000  -0.3000000   0.4000000), wk =   0.0480000
        k(    5) = (   0.0000000  -0.4000000   0.5000000), wk =   0.0480000
        k(    6) = (  -0.1000000   0.1000000   0.1000000), wk =   0.0160000
        k(    7) = (  -0.1000000  -0.1000000   0.3000000), wk =   0.0480000
        k(    8) = (  -0.1000000  -0.2000000   0.4000000), wk =   0.0960000
        k(    9) = (  -0.1000000  -0.3000000   0.5000000), wk =   0.0960000
        k(   10) = (  -0.1000000   0.6000000  -0.4000000), wk =   0.0480000
        k(   11) = (  -0.2000000   0.2000000   0.1000000), wk =   0.0480000
        k(   12) = (  -0.2000000  -0.2000000   0.5000000), wk =   0.0480000
        k(   13) = (  -0.2000000   0.7000000  -0.4000000), wk =   0.0960000
        k(   14) = (  -0.3000000   0.3000000   0.1000000), wk =   0.0480000
        k(   15) = (  -0.3000000   0.2000000   0.2000000), wk =   0.0480000
        k(   16) = (  -0.3000000   0.7000000  -0.3000000), wk =   0.0160000
        k(   17) = (  -0.4000000   0.4000000   0.1000000), wk =   0.0480000
        k(   18) = (  -0.4000000   0.3000000   0.2000000), wk =   0.0960000
        k(   19) = (   0.5000000  -0.5000000   0.1000000), wk =   0.0240000
        k(   20) = (   0.5000000  -0.6000000   0.2000000), wk =   0.0960000
        k(   21) = (   0.5000000  -0.7000000   0.3000000), wk =   0.0480000
        k(   22) = (   0.4000000  -0.6000000   0.3000000), wk =   0.0480000
        k(   23) = (   0.0000000   0.0000000   0.3000000), wk =   0.0120000
        k(   24) = (   0.0000000  -0.1000000   0.4000000), wk =   0.0480000
        k(   25) = (   0.0000000  -0.2000000   0.5000000), wk =   0.0480000
        k(   26) = (   0.0000000  -0.3000000   0.6000000), wk =   0.0480000
        k(   27) = (  -0.1000000  -0.1000000   0.5000000), wk =   0.0480000
        k(   28) = (  -0.1000000  -0.2000000   0.6000000), wk =   0.0960000
        k(   29) = (  -0.1000000   0.7000000  -0.3000000), wk =   0.0480000
        k(   30) = (  -0.2000000   0.8000000  -0.3000000), wk =   0.0480000
        k(   31) = (  -0.3000000   0.3000000   0.3000000), wk =   0.0160000
        k(   32) = (   0.6000000  -0.6000000   0.3000000), wk =   0.0480000
        k(   33) = (   0.5000000  -0.5000000   0.3000000), wk =   0.0240000
        k(   34) = (   0.5000000  -0.6000000   0.4000000), wk =   0.0480000
        k(   35) = (   0.0000000   0.0000000   0.5000000), wk =   0.0120000
        k(   36) = (   0.0000000  -0.1000000   0.6000000), wk =   0.0480000
        k(   37) = (   0.0000000  -0.2000000   0.7000000), wk =   0.0480000
        k(   38) = (  -0.1000000  -0.1000000   0.7000000), wk =   0.0480000
        k(   39) = (  -0.1000000   0.8000000  -0.2000000), wk =   0.0480000
        k(   40) = (   0.5000000  -0.5000000   0.5000000), wk =   0.0040000
        k(   41) = (   0.0000000   0.0000000   0.7000000), wk =   0.0120000
        k(   42) = (   0.0000000  -0.1000000   0.8000000), wk =   0.0480000
        k(   43) = (  -0.1000000   0.9000000  -0.1000000), wk =   0.0160000
        k(   44) = (   0.0000000   0.0000000   0.9000000), wk =   0.0120000

     Dense  grid:     1985 G-vectors     FFT dimensions: (  18,  18,  18)

     Estimated max dynamical RAM per process >       2.51 MB

     Initial potential from superposition of free atoms

     starting charge       0.9960, renormalised to       1.0000
     Starting wfcs are   16 randomized atomic wfcs

     total cpu time spent up to now is        0.1 secs

     Self-consistent Calculation

     iteration #  1     ecut=    20.00 Ry     beta= 0.70
     Davidson diagonalization with overlap
     ethr =  1.00E-02,  avg # of iterations =  5.1

     Threshold (ethr) on eigenvalues was too large:
     Diagonalizing with lowered threshold

     Davidson diagonalization with overlap
     ethr =  1.35E-05,  avg # of iterations =  4.4

     total cpu time spent up to now is        0.3 secs

     total energy              =      -0.68479515 Ry
     estimated scf accuracy    <       0.00013672 Ry

     iteration #  2     ecut=    20.00 Ry     beta= 0.70
     Davidson diagonalization with overlap
     ethr =  1.37E-05,  avg # of iterations =  1.0

     total cpu time spent up to now is        0.4 secs

     total energy              =      -0.68479467 Ry
     estimated scf accuracy    <       0.00001217 Ry

     iteration #  3     ecut=    20.00 Ry     beta= 0.70
     Davidson diagonalization with overlap
     ethr =  1.22E-06,  avg # of iterations =  1.3

     total cpu time spent up to now is        0.4 secs

     End of self-consistent calculation

          k = 0.0000 0.0000 0.1000 (   245 PWs)   bands (ev):

    -3.3061  11.9771  11.9771  12.1900  15.8853

          k = 0.0000-0.1000 0.2000 (   251 PWs)   bands (ev):

    -2.9533  10.1246  10.8733  11.7609  14.3341

          k = 0.0000-0.2000 0.3000 (   252 PWs)   bands (ev):

    -2.2503   7.4254   9.7657  11.1041  13.7043

          k = 0.0000-0.3000 0.4000 (   254 PWs)   bands (ev):

    -1.2192   4.8936   8.9725  10.5129  12.8370

          k = 0.0000-0.4000 0.5000 (   259 PWs)   bands (ev):

    -0.0340   2.9325   8.5662  10.1846  12.4007

          k =-0.1000 0.1000 0.1000 (   246 PWs)   bands (ev):

    -3.1299  11.0993  11.4919  11.4919  15.1618

          k =-0.1000-0.1000 0.3000 (   252 PWs)   bands (ev):

    -2.4239   8.7036   9.0562  11.1938  13.5679

          k =-0.1000-0.2000 0.4000 (   257 PWs)   bands (ev):

    -1.5483   6.2118   8.0211  10.5628  13.5293

          k =-0.1000-0.3000 0.5000 (   259 PWs)   bands (ev):

    -0.3779   3.9237   7.4372  10.0801  13.5201

          k =-0.1000 0.6000-0.4000 (   257 PWs)   bands (ev):

     0.5295   2.6338   7.2414   9.9071  13.4546

          k =-0.2000 0.2000 0.1000 (   250 PWs)   bands (ev):

    -2.6018   8.8359  10.1111  10.5139  14.6713

          k =-0.2000-0.2000 0.5000 (   252 PWs)   bands (ev):

    -0.5074   4.8354   6.2928  10.1608  13.7745

          k =-0.2000 0.7000-0.4000 (   255 PWs)   bands (ev):

     0.7591   3.1049   5.6573   9.9093  14.1723

          k =-0.3000 0.3000 0.1000 (   253 PWs)   bands (ev):

    -1.7292   6.1402   9.2387   9.6295  14.0681

          k =-0.3000 0.2000 0.2000 (   254 PWs)   bands (ev):

    -1.8997   7.3823   8.0860   9.3704  15.3206

          k =-0.3000 0.7000-0.3000 (   255 PWs)   bands (ev):

     2.0480   2.0480   4.9034   9.8487  15.3461

          k =-0.4000 0.4000 0.1000 (   253 PWs)   bands (ev):

    -0.5682   3.8235   8.6938   9.0576  13.5813

          k =-0.4000 0.3000 0.2000 (   254 PWs)   bands (ev):

    -0.8619   5.0465   7.1449   8.7243  15.4162

          k = 0.5000-0.5000 0.1000 (   258 PWs)   bands (ev):

     0.3132   2.5504   8.5088   8.8620  13.4044

          k = 0.5000-0.6000 0.2000 (   258 PWs)   bands (ev):

     0.3687   3.0664   6.7392   8.3933  15.2992

          k = 0.5000-0.7000 0.3000 (   254 PWs)   bands (ev):

     0.3272   3.7854   5.5433   8.3128  16.5016

          k = 0.4000-0.6000 0.3000 (   255 PWs)   bands (ev):

     1.4035   2.5651   5.1177   8.1731  16.6681

          k = 0.0000 0.0000 0.3000 (   257 PWs)   bands (ev):

    -2.5983   9.6525   9.6525  11.2239  12.3361

          k = 0.0000-0.1000 0.4000 (   252 PWs)   bands (ev):

    -1.8905   7.5604   8.4920  10.7778  11.7991

          k = 0.0000-0.2000 0.5000 (   253 PWs)   bands (ev):

    -0.8482   5.1252   7.6754  10.2447  12.4584

          k = 0.0000-0.3000 0.6000 (   256 PWs)   bands (ev):

     0.3737   3.1556   7.2596   9.9475  13.3244

          k =-0.1000-0.1000 0.5000 (   252 PWs)   bands (ev):

    -1.0068   6.2274   6.9612  10.7542  11.1662

          k =-0.1000-0.2000 0.6000 (   255 PWs)   bands (ev):

     0.1879   4.2126   6.2168  10.4325  11.9266

          k =-0.1000 0.7000-0.3000 (   249 PWs)   bands (ev):

     1.1757   2.8879   6.0041  10.2808  12.7047

          k =-0.2000 0.8000-0.3000 (   251 PWs)   bands (ev):

     1.4930   3.1082   5.0866  10.9345  12.1593

          k =-0.3000 0.3000 0.3000 (   258 PWs)   bands (ev):

    -1.0268   6.3619   6.3619   7.8552  16.7210

          k = 0.6000-0.6000 0.3000 (   255 PWs)   bands (ev):

     0.1664   4.1527   5.7355   7.3515  17.4145

          k = 0.5000-0.5000 0.3000 (   252 PWs)   bands (ev):

     1.1878   2.7655   5.5250   7.2015  17.5913

          k = 0.5000-0.6000 0.4000 (   253 PWs)   bands (ev):

     1.4896   3.1457   4.4414   6.9460  18.5491

          k = 0.0000 0.0000 0.5000 (   249 PWs)   bands (ev):

    -1.1729   7.3089   7.3089   9.6710  10.4823

          k = 0.0000-0.1000 0.6000 (   250 PWs)   bands (ev):

    -0.1110   5.5456   6.4825   9.3739  10.5646

          k = 0.0000-0.2000 0.7000 (   253 PWs)   bands (ev):

     1.1770   3.6233   6.0627   9.3602  11.5502

          k =-0.1000-0.1000 0.7000 (   253 PWs)   bands (ev):

     1.1107   4.5234   5.4465   9.4538  10.4732

          k =-0.1000 0.8000-0.2000 (   248 PWs)   bands (ev):

     2.2395   3.2918   5.1197   9.7513  11.3151

          k = 0.5000-0.5000 0.5000 (   240 PWs)   bands (ev):

     2.9315   2.9315   2.9315   6.5592  20.3419

          k = 0.0000 0.0000 0.7000 (   249 PWs)   bands (ev):

     0.9775   5.6518   5.6518   7.8938  10.0293

          k = 0.0000-0.1000 0.8000 (   249 PWs)   bands (ev):

     2.3399   4.3257   5.2303   8.1092   9.8144

          k =-0.1000 0.9000-0.1000 (   245 PWs)   bands (ev):

     3.6629   3.6629   4.7491   8.5864   8.5864

          k = 0.0000 0.0000 0.9000 (   245 PWs)   bands (ev):

     3.7424   4.8083   4.8083   7.0051   7.9671

     the Fermi energy is    -0.0240 ev

!    total energy              =      -0.68479474 Ry
     estimated scf accuracy    <          1.1E-09 Ry
     smearing contrib. (-TS)   =       0.00000377 Ry
     internal energy E=F+TS    =      -0.68479851 Ry

     The total energy is F=E-TS. E is the sum of the following terms:
     one-electron contribution =       0.35496322 Ry
     hartree contribution      =       0.00066493 Ry
     xc contribution           =      -0.51679590 Ry
     ewald contribution        =      -0.52363076 Ry

     convergence has been achieved in   3 iterations

     Forces acting on atoms (cartesian axes, Ry/au):

     atom    1 type  1   force =     0.00000000    0.00000000    0.00000000

     Total force =     0.000000     Total SCF correction =     0.000000


     Computing stress (Cartesian axis) and pressure

          total   stress  (Ry/bohr**3)                   (kbar)     P=      -27.28
  -0.00018546   0.00000000   0.00000000          -27.28        0.00        0.00
   0.00000000  -0.00018546   0.00000000            0.00      -27.28        0.00
   0.00000000   0.00000000  -0.00018546            0.00        0.00      -27.28


     Writing all to output data dir ./QE-outdir/li.save/ :
     XML data file, charge density, pseudopotentials, collected wavefunctions

     init_run     :      0.07s CPU      0.08s WALL (       1 calls)
     electrons    :      0.24s CPU      0.34s WALL (       1 calls)
     forces       :      0.00s CPU      0.00s WALL (       1 calls)
     stress       :      0.03s CPU      0.03s WALL (       1 calls)

     Called by init_run:
     wfcinit      :      0.05s CPU      0.07s WALL (       1 calls)
     potinit      :      0.00s CPU      0.00s WALL (       1 calls)
     hinit0       :      0.01s CPU      0.01s WALL (       1 calls)

     Called by electrons:
     c_bands      :      0.21s CPU      0.32s WALL (       4 calls)
     sum_band     :      0.03s CPU      0.03s WALL (       4 calls)
     v_of_rho     :      0.00s CPU      0.00s WALL (       4 calls)
     mix_rho      :      0.00s CPU      0.00s WALL (       4 calls)

     Called by c_bands:
     init_us_2    :      0.01s CPU      0.01s WALL (     484 calls)
     cegterg      :      0.20s CPU      0.31s WALL (     176 calls)

     Called by *egterg:
     cdiaghg      :      0.07s CPU      0.18s WALL (     653 calls)
     h_psi        :      0.16s CPU      0.17s WALL (     741 calls)
     g_psi        :      0.00s CPU      0.00s WALL (     521 calls)

     Called by h_psi:
     h_psi:calbec :      0.00s CPU      0.00s WALL (     741 calls)
     vloc_psi     :      0.16s CPU      0.16s WALL (     741 calls)
                                        0.00s GPU  (     741 calls)
     add_vuspsi   :      0.00s CPU      0.00s WALL (     741 calls)

     General routines
     calbec       :      0.01s CPU      0.01s WALL (    1489 calls)
     fft          :      0.00s CPU      0.00s WALL (      20 calls)
     ffts         :      0.00s CPU      0.00s WALL (       4 calls)
     fftw         :      0.16s CPU      0.16s WALL (    7540 calls)

     Parallel routines

     PWSCF        :      0.35s CPU      0.47s WALL


   This run was terminated on:  14: 5:41  26Jan2026            

=------------------------------------------------------------------------------=
   JOB DONE.
=------------------------------------------------------------------------------=
