
     Program PWSCF v.7.5 starts on 26Jan2026 at 14: 5:36 

     This program is part of the open-source Quantum ESPRESSO suite
     for quantum simulation of materials; please cite
         "P. Giannozzi et al., J. Phys.:Condens. Matter 21 395502 (2009);
         "P. Giannozzi et al., J. Phys.:Condens. Matter 29 465901 (2017);
         "P. Giannozzi et al., J. Chem. Phys. 152 154105 (2020);
          URL http://www.quantum-espresso.org", 
     in publications or presentations arising from this work. More details at
     http://www.quantum-espresso.org/quote

     Parallel version (MPI), running on     1 processors

     MPI processes distributed on     1 nodes
     0 MiB available memory on the printing compute node when the environment starts

     Waiting for input...
     Reading input from standard input
     Message from routine read_cards :
     DEPRECATED: no units specified in ATOMIC_POSITIONS card
     Message from routine read_cards :
     ATOMIC_POSITIONS: units set to alat

     Current dimensions of program PWSCF are:
     Max number of different atomic species (ntypx) = 10
     Max number of k-points (npk) =  40000
     Max angular momentum in pseudopotentials (lmaxx) =  4
     file Li.pbe-mt_fhi.UPF: wavefunction(s)  2p 4f renormalized

     IMPORTANT: XC functional enforced from input :
     Exchange-correlation= PZ
                           (   1   1   0   0   0   0   0)
     Any further DFT definition will be discarded
     Please, verify this is what you really want


     Subspace diagonalization in iterative solution of the eigenvalue problem:
     a serial algorithm will be used


     G-vector sticks info
     --------------------
     sticks:   dense  smooth     PW     G-vecs:    dense   smooth      PW
     Sum         197     197     67                 1721     1721     369

     Using Slab Decomposition



     bravais-lattice index     =            3
     lattice parameter (alat)  =       6.5500  a.u.
     unit-cell volume          =     140.5057 (a.u.)^3
     number of atoms/cell      =            1
     number of atomic types    =            1
     number of electrons       =         1.00
     number of Kohn-Sham states=            5
     kinetic-energy cutoff     =      20.0000  Ry
     charge density cutoff     =      80.0000  Ry
     scf convergence threshold =      1.0E-08
     mixing beta               =       0.7000
     number of iterations used =            8  plain     mixing
     Exchange-correlation= PZ
                           (   1   1   0   0   0   0   0)

     celldm(1)=   6.550000  celldm(2)=   0.000000  celldm(3)=   0.000000
     celldm(4)=   0.000000  celldm(5)=   0.000000  celldm(6)=   0.000000

     crystal axes: (cart. coord. in units of alat)
               a(1) = (   0.500000   0.500000   0.500000 )  
               a(2) = (  -0.500000   0.500000   0.500000 )  
               a(3) = (  -0.500000  -0.500000   0.500000 )  

     reciprocal axes: (cart. coord. in units 2 pi/alat)
               b(1) = (  1.000000  0.000000  1.000000 )  
               b(2) = ( -1.000000  1.000000  0.000000 )  
               b(3) = (  0.000000 -1.000000  1.000000 )  


     PseudoPot. # 1 for Li read from file:
     ./pseudopot/Li.pbe-mt_fhi.UPF
     MD5 check sum: 3419f5616d131090147e867976aae79b
     Pseudo is Norm-conserving + core correction, Zval =  1.0
     Generated using FHI98PP, converted with fhi2upf.x v.5.0.2
     Using radial grid of  433 points,  3 beta functions with: 
                l(1) =   0
                l(2) =   1
                l(3) =   3

     atomic species   valence    mass     pseudopotential
     Li                1.00     6.94000     Li( 1.00)

     48 Sym. Ops., with inversion, found



   Cartesian axes

     site n.     atom                  positions (alat units)
         1        Li     tau(   1) = (   0.0000000   0.0000000   0.0000000  )

     number of k points=    44  Methfessel-Paxton smearing, width (Ry)=  0.0100
                       cart. coord. in units 2pi/alat
        k(    1) = (   0.0000000   0.0000000   0.1000000), wk =   0.0120000
        k(    2) = (   0.0000000  -0.1000000   0.2000000), wk =   0.0480000
        k(    3) = (   0.0000000  -0.2000000   0.3000000), wk =   0.0480000
        k(    4) = (   0.0000000  -0.3000000   0.4000000), wk =   0.0480000
        k(    5) = (   0.0000000  -0.4000000   0.5000000), wk =   0.0480000
        k(    6) = (  -0.1000000   0.1000000   0.1000000), wk =   0.0160000
        k(    7) = (  -0.1000000  -0.1000000   0.3000000), wk =   0.0480000
        k(    8) = (  -0.1000000  -0.2000000   0.4000000), wk =   0.0960000
        k(    9) = (  -0.1000000  -0.3000000   0.5000000), wk =   0.0960000
        k(   10) = (  -0.1000000   0.6000000  -0.4000000), wk =   0.0480000
        k(   11) = (  -0.2000000   0.2000000   0.1000000), wk =   0.0480000
        k(   12) = (  -0.2000000  -0.2000000   0.5000000), wk =   0.0480000
        k(   13) = (  -0.2000000   0.7000000  -0.4000000), wk =   0.0960000
        k(   14) = (  -0.3000000   0.3000000   0.1000000), wk =   0.0480000
        k(   15) = (  -0.3000000   0.2000000   0.2000000), wk =   0.0480000
        k(   16) = (  -0.3000000   0.7000000  -0.3000000), wk =   0.0160000
        k(   17) = (  -0.4000000   0.4000000   0.1000000), wk =   0.0480000
        k(   18) = (  -0.4000000   0.3000000   0.2000000), wk =   0.0960000
        k(   19) = (   0.5000000  -0.5000000   0.1000000), wk =   0.0240000
        k(   20) = (   0.5000000  -0.6000000   0.2000000), wk =   0.0960000
        k(   21) = (   0.5000000  -0.7000000   0.3000000), wk =   0.0480000
        k(   22) = (   0.4000000  -0.6000000   0.3000000), wk =   0.0480000
        k(   23) = (   0.0000000   0.0000000   0.3000000), wk =   0.0120000
        k(   24) = (   0.0000000  -0.1000000   0.4000000), wk =   0.0480000
        k(   25) = (   0.0000000  -0.2000000   0.5000000), wk =   0.0480000
        k(   26) = (   0.0000000  -0.3000000   0.6000000), wk =   0.0480000
        k(   27) = (  -0.1000000  -0.1000000   0.5000000), wk =   0.0480000
        k(   28) = (  -0.1000000  -0.2000000   0.6000000), wk =   0.0960000
        k(   29) = (  -0.1000000   0.7000000  -0.3000000), wk =   0.0480000
        k(   30) = (  -0.2000000   0.8000000  -0.3000000), wk =   0.0480000
        k(   31) = (  -0.3000000   0.3000000   0.3000000), wk =   0.0160000
        k(   32) = (   0.6000000  -0.6000000   0.3000000), wk =   0.0480000
        k(   33) = (   0.5000000  -0.5000000   0.3000000), wk =   0.0240000
        k(   34) = (   0.5000000  -0.6000000   0.4000000), wk =   0.0480000
        k(   35) = (   0.0000000   0.0000000   0.5000000), wk =   0.0120000
        k(   36) = (   0.0000000  -0.1000000   0.6000000), wk =   0.0480000
        k(   37) = (   0.0000000  -0.2000000   0.7000000), wk =   0.0480000
        k(   38) = (  -0.1000000  -0.1000000   0.7000000), wk =   0.0480000
        k(   39) = (  -0.1000000   0.8000000  -0.2000000), wk =   0.0480000
        k(   40) = (   0.5000000  -0.5000000   0.5000000), wk =   0.0040000
        k(   41) = (   0.0000000   0.0000000   0.7000000), wk =   0.0120000
        k(   42) = (   0.0000000  -0.1000000   0.8000000), wk =   0.0480000
        k(   43) = (  -0.1000000   0.9000000  -0.1000000), wk =   0.0160000
        k(   44) = (   0.0000000   0.0000000   0.9000000), wk =   0.0120000

     Dense  grid:     1721 G-vectors     FFT dimensions: (  18,  18,  18)

     Estimated max dynamical RAM per process >       2.24 MB

     Initial potential from superposition of free atoms

     starting charge       0.9960, renormalised to       1.0000
     Starting wfcs are   16 randomized atomic wfcs

     total cpu time spent up to now is        0.1 secs

     Self-consistent Calculation

     iteration #  1     ecut=    20.00 Ry     beta= 0.70
     Davidson diagonalization with overlap
     ethr =  1.00E-02,  avg # of iterations =  4.5

     Threshold (ethr) on eigenvalues was too large:
     Diagonalizing with lowered threshold

     Davidson diagonalization with overlap
     ethr =  1.69E-05,  avg # of iterations =  4.2

     total cpu time spent up to now is        0.3 secs

     total energy              =      -0.68879722 Ry
     estimated scf accuracy    <       0.00016819 Ry

     iteration #  2     ecut=    20.00 Ry     beta= 0.70
     Davidson diagonalization with overlap
     ethr =  1.68E-05,  avg # of iterations =  1.0

     total cpu time spent up to now is        0.3 secs

     total energy              =      -0.68879525 Ry
     estimated scf accuracy    <       0.00001469 Ry

     iteration #  3     ecut=    20.00 Ry     beta= 0.70
     Davidson diagonalization with overlap
     ethr =  1.47E-06,  avg # of iterations =  1.3

     total cpu time spent up to now is        0.4 secs

     End of self-consistent calculation

          k = 0.0000 0.0000 0.1000 (   213 PWs)   bands (ev):

    -3.1328  14.0216  14.0217  14.2891  18.1736

          k = 0.0000-0.1000 0.2000 (   210 PWs)   bands (ev):

    -2.7527  11.8886  12.7391  13.7802  16.4931

          k = 0.0000-0.2000 0.3000 (   211 PWs)   bands (ev):

    -1.9952   8.8346  11.4725  13.0015  15.7641

          k = 0.0000-0.3000 0.4000 (   210 PWs)   bands (ev):

    -0.8873   6.0147  10.5709  12.3126  14.7864

          k = 0.0000-0.4000 0.5000 (   209 PWs)   bands (ev):

     0.3555   3.8887  10.1102  11.9333  14.2948

          k =-0.1000 0.1000 0.1000 (   213 PWs)   bands (ev):

    -2.9431  13.0513  13.4283  13.4284  17.4433

          k =-0.1000-0.1000 0.3000 (   211 PWs)   bands (ev):

    -2.1814  10.2089  10.7294  13.1192  15.6302

          k =-0.1000-0.2000 0.4000 (   209 PWs)   bands (ev):

    -1.2365   7.4372   9.5424  12.3746  15.6234

          k =-0.1000-0.3000 0.5000 (   211 PWs)   bands (ev):

     0.0175   4.9161   8.8798  11.8134  15.6689

          k =-0.1000 0.6000-0.4000 (   214 PWs)   bands (ev):

     0.9508   3.5487   8.6582  11.6128  15.6074

          k =-0.2000 0.2000 0.1000 (   210 PWs)   bands (ev):

    -2.3742  10.4138  11.9137  12.2737  16.9252

          k =-0.2000-0.2000 0.5000 (   216 PWs)   bands (ev):

    -0.1107   5.8137   7.7111  11.9090  15.8712

          k =-0.2000 0.7000-0.4000 (   215 PWs)   bands (ev):

     1.2463   3.9201   7.0087  11.6227  16.3675

          k =-0.3000 0.3000 0.1000 (   205 PWs)   bands (ev):

    -1.4343   7.3863  10.9388  11.2522  16.2302

          k =-0.3000 0.2000 0.2000 (   206 PWs)   bands (ev):

    -1.6169   8.6959   9.6389  11.0604  17.7292

          k =-0.3000 0.7000-0.3000 (   212 PWs)   bands (ev):

     2.6644   2.6644   6.2615  11.5600  17.6414

          k =-0.4000 0.4000 0.1000 (   207 PWs)   bands (ev):

    -0.1945   4.8298  10.3267  10.5968  15.6695

          k =-0.4000 0.3000 0.2000 (   210 PWs)   bands (ev):

    -0.4976   6.1105   8.5494  10.3614  17.8347

          k = 0.5000-0.5000 0.1000 (   212 PWs)   bands (ev):

     0.7067   3.4831  10.1186  10.3732  15.4666

          k = 0.5000-0.6000 0.2000 (   210 PWs)   bands (ev):

     0.8080   3.9580   8.0810  10.0023  17.6958

          k = 0.5000-0.7000 0.3000 (   214 PWs)   bands (ev):

     0.7892   4.6248   6.8449   9.9365  19.2167

          k = 0.4000-0.6000 0.3000 (   214 PWs)   bands (ev):

     1.9364   3.2946   6.3812   9.7923  19.2823

          k = 0.0000 0.0000 0.3000 (   213 PWs)   bands (ev):

    -2.3689  11.3259  11.3259  13.2651  14.1771

          k = 0.0000-0.1000 0.4000 (   210 PWs)   bands (ev):

    -1.6033   8.9581  10.0030  12.7196  13.6565

          k = 0.0000-0.2000 0.5000 (   215 PWs)   bands (ev):

    -0.4779   6.2414   9.0762  12.1040  14.4343

          k = 0.0000-0.3000 0.6000 (   211 PWs)   bands (ev):

     0.8153   4.0974   8.6055  11.7726  15.4397

          k =-0.1000-0.1000 0.5000 (   213 PWs)   bands (ev):

    -0.6444   7.3984   8.3535  12.7433  12.9039

          k =-0.1000-0.2000 0.6000 (   215 PWs)   bands (ev):

     0.6469   5.1743   7.5212  12.3032  13.8293

          k =-0.1000 0.7000-0.3000 (   212 PWs)   bands (ev):

     1.6806   3.7619   7.2799  12.1298  14.7199

          k =-0.2000 0.8000-0.3000 (   213 PWs)   bands (ev):

     2.0650   3.8634   6.3845  12.8925  14.0359

          k =-0.3000 0.3000 0.3000 (   210 PWs)   bands (ev):

    -0.6734   7.5368   7.5368   9.5842  19.3214

          k = 0.6000-0.6000 0.3000 (   212 PWs)   bands (ev):

     0.6161   5.0801   6.8269   9.0638  20.1062

          k = 0.5000-0.5000 0.3000 (   210 PWs)   bands (ev):

     1.6929   3.5870   6.5886   8.9075  20.2952

          k = 0.5000-0.6000 0.4000 (   212 PWs)   bands (ev):

     2.0572   3.9019   5.4247   8.6724  21.4359

          k = 0.0000 0.0000 0.5000 (   209 PWs)   bands (ev):

    -0.8210   8.6567   8.6567  11.1763  12.5565

          k = 0.0000-0.1000 0.6000 (   214 PWs)   bands (ev):

     0.3356   6.6718   7.7199  10.9271  12.6120

          k = 0.0000-0.2000 0.7000 (   216 PWs)   bands (ev):

     1.7208   4.5590   7.2449  11.0754  13.5663

          k =-0.1000-0.1000 0.7000 (   220 PWs)   bands (ev):

     1.6711   5.4710   6.6354  10.9704  12.5348

          k =-0.1000 0.8000-0.2000 (   218 PWs)   bands (ev):

     2.8831   4.1276   6.2865  11.4057  13.0810

          k = 0.5000-0.5000 0.5000 (   216 PWs)   bands (ev):

     3.6596   3.6596   3.6596   8.3418  23.4695

          k = 0.0000 0.0000 0.7000 (   220 PWs)   bands (ev):

     1.5362   6.7786   6.7786   9.1751  12.0971

          k = 0.0000-0.1000 0.8000 (   220 PWs)   bands (ev):

     3.0306   5.2935   6.3020   9.4713  11.5360

          k =-0.1000 0.9000-0.1000 (   224 PWs)   bands (ev):

     4.4988   4.4988   5.8271   9.9919   9.9919

          k = 0.0000 0.0000 0.9000 (   228 PWs)   bands (ev):

     4.6093   5.8242   5.8242   8.1745   9.3035

     the Fermi energy is     0.3841 ev

!    total energy              =      -0.68879530 Ry
     estimated scf accuracy    <          3.5E-10 Ry
     smearing contrib. (-TS)   =      -0.00006184 Ry
     internal energy E=F+TS    =      -0.68873347 Ry

     The total energy is F=E-TS. E is the sum of the following terms:
     one-electron contribution =       0.40482024 Ry
     hartree contribution      =       0.00094766 Ry
     xc contribution           =      -0.53889318 Ry
     ewald contribution        =      -0.55560819 Ry

     convergence has been achieved in   3 iterations

     Forces acting on atoms (cartesian axes, Ry/au):

     atom    1 type  1   force =     0.00000000    0.00000000    0.00000000

     Total force =     0.000000     Total SCF correction =     0.000000


     Computing stress (Cartesian axis) and pressure

          total   stress  (Ry/bohr**3)                   (kbar)     P=      -14.14
  -0.00009610   0.00000000  -0.00000000          -14.14        0.00       -0.00
   0.00000000  -0.00009610   0.00000000            0.00      -14.14        0.00
  -0.00000000   0.00000000  -0.00009610           -0.00        0.00      -14.14


     Writing all to output data dir ./QE-outdir/li.save/ :
     XML data file, charge density, pseudopotentials, collected wavefunctions

     init_run     :      0.06s CPU      0.08s WALL (       1 calls)
     electrons    :      0.22s CPU      0.31s WALL (       1 calls)
     forces       :      0.00s CPU      0.00s WALL (       1 calls)
     stress       :      0.02s CPU      0.02s WALL (       1 calls)

     Called by init_run:
     wfcinit      :      0.05s CPU      0.06s WALL (       1 calls)
     potinit      :      0.00s CPU      0.00s WALL (       1 calls)
     hinit0       :      0.01s CPU      0.01s WALL (       1 calls)

     Called by electrons:
     c_bands      :      0.19s CPU      0.28s WALL (       4 calls)
     sum_band     :      0.03s CPU      0.03s WALL (       4 calls)
     v_of_rho     :      0.00s CPU      0.00s WALL (       4 calls)
     mix_rho      :      0.00s CPU      0.00s WALL (       4 calls)

     Called by c_bands:
     init_us_2    :      0.01s CPU      0.01s WALL (     484 calls)
     cegterg      :      0.18s CPU      0.28s WALL (     176 calls)

     Called by *egterg:
     cdiaghg      :      0.07s CPU      0.17s WALL (     616 calls)
     h_psi        :      0.14s CPU      0.15s WALL (     704 calls)
     g_psi        :      0.00s CPU      0.00s WALL (     484 calls)

     Called by h_psi:
     h_psi:calbec :      0.00s CPU      0.00s WALL (     704 calls)
     vloc_psi     :      0.14s CPU      0.14s WALL (     704 calls)
                                        0.00s GPU  (     704 calls)
     add_vuspsi   :      0.00s CPU      0.00s WALL (     704 calls)

     General routines
     calbec       :      0.01s CPU      0.01s WALL (    1452 calls)
     fft          :      0.00s CPU      0.00s WALL (      20 calls)
     ffts         :      0.00s CPU      0.00s WALL (       4 calls)
     fftw         :      0.14s CPU      0.15s WALL (    7330 calls)

     Parallel routines

     PWSCF        :      0.31s CPU      0.43s WALL


   This run was terminated on:  14: 5:37  26Jan2026            

=------------------------------------------------------------------------------=
   JOB DONE.
=------------------------------------------------------------------------------=
