
     Program PWSCF v.7.5 starts on 31Jan2026 at 23:30:57 

     This program is part of the open-source Quantum ESPRESSO suite
     for quantum simulation of materials; please cite
         "P. Giannozzi et al., J. Phys.:Condens. Matter 21 395502 (2009);
         "P. Giannozzi et al., J. Phys.:Condens. Matter 29 465901 (2017);
         "P. Giannozzi et al., J. Chem. Phys. 152 154105 (2020);
          URL http://www.quantum-espresso.org", 
     in publications or presentations arising from this work. More details at
     http://www.quantum-espresso.org/quote

     Parallel version (MPI), running on     1 processors

     MPI processes distributed on     1 nodes
     0 MiB available memory on the printing compute node when the environment starts

     Waiting for input...
     Reading input from standard input
     Message from routine read_cards :
     DEPRECATED: no units specified in ATOMIC_POSITIONS card
     Message from routine read_cards :
     ATOMIC_POSITIONS: units set to alat

     Current dimensions of program PWSCF are:
     Max number of different atomic species (ntypx) = 10
     Max number of k-points (npk) =  40000
     Max angular momentum in pseudopotentials (lmaxx) =  4
     file Li.pbe-mt_fhi.UPF: wavefunction(s)  2p 4f renormalized

     IMPORTANT: XC functional enforced from input :
     Exchange-correlation= PZ
                           (   1   1   0   0   0   0   0)
     Any further DFT definition will be discarded
     Please, verify this is what you really want


     Subspace diagonalization in iterative solution of the eigenvalue problem:
     a serial algorithm will be used


     G-vector sticks info
     --------------------
     sticks:   dense  smooth     PW     G-vecs:    dense   smooth      PW
     Sum         181     181     63                 1553     1553     321

     Using Slab Decomposition



     bravais-lattice index     =            3
     lattice parameter (alat)  =       6.3800  a.u.
     unit-cell volume          =     129.8470 (a.u.)^3
     number of atoms/cell      =            1
     number of atomic types    =            1
     number of electrons       =         1.00
     number of Kohn-Sham states=            5
     kinetic-energy cutoff     =      20.0000  Ry
     charge density cutoff     =      80.0000  Ry
     scf convergence threshold =      1.0E-08
     mixing beta               =       0.7000
     number of iterations used =            8  plain     mixing
     Exchange-correlation= PZ
                           (   1   1   0   0   0   0   0)

     celldm(1)=   6.380000  celldm(2)=   0.000000  celldm(3)=   0.000000
     celldm(4)=   0.000000  celldm(5)=   0.000000  celldm(6)=   0.000000

     crystal axes: (cart. coord. in units of alat)
               a(1) = (   0.500000   0.500000   0.500000 )  
               a(2) = (  -0.500000   0.500000   0.500000 )  
               a(3) = (  -0.500000  -0.500000   0.500000 )  

     reciprocal axes: (cart. coord. in units 2 pi/alat)
               b(1) = (  1.000000  0.000000  1.000000 )  
               b(2) = ( -1.000000  1.000000  0.000000 )  
               b(3) = (  0.000000 -1.000000  1.000000 )  


     PseudoPot. # 1 for Li read from file:
     ./pseudopot/Li.pbe-mt_fhi.UPF
     MD5 check sum: 3419f5616d131090147e867976aae79b
     Pseudo is Norm-conserving + core correction, Zval =  1.0
     Generated using FHI98PP, converted with fhi2upf.x v.5.0.2
     Using radial grid of  433 points,  3 beta functions with: 
                l(1) =   0
                l(2) =   1
                l(3) =   3

     atomic species   valence    mass     pseudopotential
     Li                1.00     6.94000     Li( 1.00)

     48 Sym. Ops., with inversion, found



   Cartesian axes

     site n.     atom                  positions (alat units)
         1        Li     tau(   1) = (   0.0000000   0.0000000   0.0000000  )

     number of k points=    44  Methfessel-Paxton smearing, width (Ry)=  0.0100
                       cart. coord. in units 2pi/alat
        k(    1) = (   0.0000000   0.0000000   0.1000000), wk =   0.0120000
        k(    2) = (   0.0000000  -0.1000000   0.2000000), wk =   0.0480000
        k(    3) = (   0.0000000  -0.2000000   0.3000000), wk =   0.0480000
        k(    4) = (   0.0000000  -0.3000000   0.4000000), wk =   0.0480000
        k(    5) = (   0.0000000  -0.4000000   0.5000000), wk =   0.0480000
        k(    6) = (  -0.1000000   0.1000000   0.1000000), wk =   0.0160000
        k(    7) = (  -0.1000000  -0.1000000   0.3000000), wk =   0.0480000
        k(    8) = (  -0.1000000  -0.2000000   0.4000000), wk =   0.0960000
        k(    9) = (  -0.1000000  -0.3000000   0.5000000), wk =   0.0960000
        k(   10) = (  -0.1000000   0.6000000  -0.4000000), wk =   0.0480000
        k(   11) = (  -0.2000000   0.2000000   0.1000000), wk =   0.0480000
        k(   12) = (  -0.2000000  -0.2000000   0.5000000), wk =   0.0480000
        k(   13) = (  -0.2000000   0.7000000  -0.4000000), wk =   0.0960000
        k(   14) = (  -0.3000000   0.3000000   0.1000000), wk =   0.0480000
        k(   15) = (  -0.3000000   0.2000000   0.2000000), wk =   0.0480000
        k(   16) = (  -0.3000000   0.7000000  -0.3000000), wk =   0.0160000
        k(   17) = (  -0.4000000   0.4000000   0.1000000), wk =   0.0480000
        k(   18) = (  -0.4000000   0.3000000   0.2000000), wk =   0.0960000
        k(   19) = (   0.5000000  -0.5000000   0.1000000), wk =   0.0240000
        k(   20) = (   0.5000000  -0.6000000   0.2000000), wk =   0.0960000
        k(   21) = (   0.5000000  -0.7000000   0.3000000), wk =   0.0480000
        k(   22) = (   0.4000000  -0.6000000   0.3000000), wk =   0.0480000
        k(   23) = (   0.0000000   0.0000000   0.3000000), wk =   0.0120000
        k(   24) = (   0.0000000  -0.1000000   0.4000000), wk =   0.0480000
        k(   25) = (   0.0000000  -0.2000000   0.5000000), wk =   0.0480000
        k(   26) = (   0.0000000  -0.3000000   0.6000000), wk =   0.0480000
        k(   27) = (  -0.1000000  -0.1000000   0.5000000), wk =   0.0480000
        k(   28) = (  -0.1000000  -0.2000000   0.6000000), wk =   0.0960000
        k(   29) = (  -0.1000000   0.7000000  -0.3000000), wk =   0.0480000
        k(   30) = (  -0.2000000   0.8000000  -0.3000000), wk =   0.0480000
        k(   31) = (  -0.3000000   0.3000000   0.3000000), wk =   0.0160000
        k(   32) = (   0.6000000  -0.6000000   0.3000000), wk =   0.0480000
        k(   33) = (   0.5000000  -0.5000000   0.3000000), wk =   0.0240000
        k(   34) = (   0.5000000  -0.6000000   0.4000000), wk =   0.0480000
        k(   35) = (   0.0000000   0.0000000   0.5000000), wk =   0.0120000
        k(   36) = (   0.0000000  -0.1000000   0.6000000), wk =   0.0480000
        k(   37) = (   0.0000000  -0.2000000   0.7000000), wk =   0.0480000
        k(   38) = (  -0.1000000  -0.1000000   0.7000000), wk =   0.0480000
        k(   39) = (  -0.1000000   0.8000000  -0.2000000), wk =   0.0480000
        k(   40) = (   0.5000000  -0.5000000   0.5000000), wk =   0.0040000
        k(   41) = (   0.0000000   0.0000000   0.7000000), wk =   0.0120000
        k(   42) = (   0.0000000  -0.1000000   0.8000000), wk =   0.0480000
        k(   43) = (  -0.1000000   0.9000000  -0.1000000), wk =   0.0160000
        k(   44) = (   0.0000000   0.0000000   0.9000000), wk =   0.0120000

     Dense  grid:     1553 G-vectors     FFT dimensions: (  15,  15,  15)

     Estimated max dynamical RAM per process >       1.94 MB

     Initial potential from superposition of free atoms

     starting charge       0.9960, renormalised to       1.0000
     Starting wfcs are   16 randomized atomic wfcs

     total cpu time spent up to now is        0.1 secs

     Self-consistent Calculation

     iteration #  1     ecut=    20.00 Ry     beta= 0.70
     Davidson diagonalization with overlap
     ethr =  1.00E-02,  avg # of iterations =  4.2

     Threshold (ethr) on eigenvalues was too large:
     Diagonalizing with lowered threshold

     Davidson diagonalization with overlap
     ethr =  1.98E-05,  avg # of iterations =  3.9

     total cpu time spent up to now is        0.2 secs

     total energy              =      -0.68948581 Ry
     estimated scf accuracy    <       0.00019718 Ry

     iteration #  2     ecut=    20.00 Ry     beta= 0.70
     Davidson diagonalization with overlap
     ethr =  1.97E-05,  avg # of iterations =  1.0

     total cpu time spent up to now is        0.2 secs

     total energy              =      -0.68948326 Ry
     estimated scf accuracy    <       0.00001712 Ry

     iteration #  3     ecut=    20.00 Ry     beta= 0.70
     Davidson diagonalization with overlap
     ethr =  1.71E-06,  avg # of iterations =  1.5

     total cpu time spent up to now is        0.3 secs

     End of self-consistent calculation

          k = 0.0000 0.0000 0.1000 (   197 PWs)   bands (ev):

    -3.0303  15.0148  15.0148  15.3107  19.2825

          k = 0.0000-0.1000 0.2000 (   196 PWs)   bands (ev):

    -2.6387  12.7437  13.6451  14.7607  17.5408

          k = 0.0000-0.2000 0.3000 (   193 PWs)   bands (ev):

    -1.8581   9.5199  12.3016  13.9220  16.7635

          k = 0.0000-0.3000 0.4000 (   190 PWs)   bands (ev):

    -0.7178   6.5642  11.3473  13.1857  15.7325

          k = 0.0000-0.4000 0.5000 (   193 PWs)   bands (ev):

     0.5477   4.3625  10.8601  12.7813  15.2141

          k =-0.1000 0.1000 0.1000 (   198 PWs)   bands (ev):

    -2.8350  13.9998  14.3677  14.3677  18.5515

          k =-0.1000-0.1000 0.3000 (   199 PWs)   bands (ev):

    -2.0498  10.9394  11.5426  14.0531  16.6308

          k =-0.1000-0.2000 0.4000 (   195 PWs)   bands (ev):

    -1.0750   8.0324  10.2845  13.2530  16.6383

          k =-0.1000-0.3000 0.5000 (   191 PWs)   bands (ev):

     0.2147   5.4024   9.5845  12.6545  16.7110

          k =-0.1000 0.6000-0.4000 (   195 PWs)   bands (ev):

     1.1584   3.9992   9.3503  12.4412  16.6512

          k =-0.2000 0.2000 0.1000 (   195 PWs)   bands (ev):

    -2.2489  11.1781  12.7922  13.1268  18.0198

          k =-0.2000-0.2000 0.5000 (   194 PWs)   bands (ev):

     0.0884   6.2904   8.4068  12.7580  16.8884

          k =-0.2000 0.7000-0.4000 (   197 PWs)   bands (ev):

     1.4857   4.3172   7.6751  12.4552  17.4304

          k =-0.3000 0.3000 0.1000 (   194 PWs)   bands (ev):

    -1.2805   7.9930  11.7667  12.0384  17.2785

          k =-0.3000 0.2000 0.2000 (   194 PWs)   bands (ev):

    -1.4679   9.3341  10.3889  11.8881  18.8973

          k =-0.3000 0.7000-0.3000 (   197 PWs)   bands (ev):

     2.9662   2.9662   6.9304  12.3922  18.7539

          k =-0.4000 0.4000 0.1000 (   192 PWs)   bands (ev):

    -0.0076   5.3249  11.1230  11.3429  16.6818

          k =-0.4000 0.3000 0.2000 (   191 PWs)   bands (ev):

    -0.3135   6.6281   9.2309  11.1658  19.0063

          k = 0.5000-0.5000 0.1000 (   192 PWs)   bands (ev):

     0.9009   3.9442  10.9044  11.1061  16.4666

          k = 0.5000-0.6000 0.2000 (   195 PWs)   bands (ev):

     1.0243   4.3946   8.7322  10.7948  18.8555

          k = 0.5000-0.7000 0.3000 (   196 PWs)   bands (ev):

     1.0174   5.0345   7.4775  10.7377  20.4351

          k = 0.4000-0.6000 0.3000 (   201 PWs)   bands (ev):

     2.1978   3.6499   6.9968  10.5920  20.5439

          k = 0.0000 0.0000 0.3000 (   201 PWs)   bands (ev):

    -2.2427  12.1384  12.1384  14.2565  15.0703

          k = 0.0000-0.1000 0.4000 (   198 PWs)   bands (ev):

    -1.4519   9.6365  10.7365  13.6553  14.5671

          k = 0.0000-0.2000 0.5000 (   192 PWs)   bands (ev):

    -0.2904   6.7867   9.7572  13.0078  15.3959

          k = 0.0000-0.3000 0.6000 (   199 PWs)   bands (ev):

     1.0326   4.5612   9.2596  12.6611  16.4667

          k =-0.1000-0.1000 0.5000 (   195 PWs)   bands (ev):

    -0.4599   7.9676   9.0316  13.7119  13.7476

          k =-0.1000-0.2000 0.6000 (   200 PWs)   bands (ev):

     0.8745   5.6426   8.1592  13.2085  14.7570

          k =-0.1000 0.7000-0.3000 (   202 PWs)   bands (ev):

     1.9283   4.1887   7.9047  13.0273  15.6992

          k =-0.2000 0.8000-0.3000 (   202 PWs)   bands (ev):

     2.3452   4.2323   7.0217  13.8413  14.9467

          k =-0.3000 0.3000 0.3000 (   186 PWs)   bands (ev):

    -0.4937   8.1082   8.1082  10.4336  20.5848

          k = 0.6000-0.6000 0.3000 (   192 PWs)   bands (ev):

     0.8388   5.5317   7.3578   9.9100  21.7041

          k = 0.5000-0.5000 0.3000 (   198 PWs)   bands (ev):

     1.9408   3.9874   7.1060   9.7518  21.6055

          k = 0.5000-0.6000 0.4000 (   197 PWs)   bands (ev):

     2.3353   4.2711   5.9008   9.5303  22.8345

          k = 0.0000 0.0000 0.5000 (   201 PWs)   bands (ev):

    -0.6408   9.3113   9.3113  11.9073  13.5669

          k = 0.0000-0.1000 0.6000 (   200 PWs)   bands (ev):

     0.5587   7.2199   8.3219  11.6760  13.6161

          k = 0.0000-0.2000 0.7000 (   202 PWs)   bands (ev):

     1.9875   5.0169   7.8203  11.9026  14.5522

          k =-0.1000-0.1000 0.7000 (   203 PWs)   bands (ev):

     1.9468   5.9328   7.2151  11.7075  13.5349

          k =-0.1000 0.8000-0.2000 (   204 PWs)   bands (ev):

     3.1980   4.5343   6.8571  12.2022  13.9381

          k = 0.5000-0.5000 0.5000 (   180 PWs)   bands (ev):

     4.0160   4.0160   4.0160   9.2266  24.9943

          k = 0.0000 0.0000 0.7000 (   204 PWs)   bands (ev):

     1.8117   7.3275   7.3275   9.7981  13.0968

          k = 0.0000-0.1000 0.8000 (   204 PWs)   bands (ev):

     3.3682   5.7653   6.8242  10.1322  12.3567

          k =-0.1000 0.9000-0.1000 (   206 PWs)   bands (ev):

     4.9069   4.9069   6.3517  10.6755  10.6755

          k = 0.0000 0.0000 0.9000 (   204 PWs)   bands (ev):

     5.0316   6.3204   6.3204   8.7433   9.9524

     the Fermi energy is     0.5904 ev

!    total energy              =      -0.68948330 Ry
     estimated scf accuracy    <          2.4E-10 Ry
     smearing contrib. (-TS)   =      -0.00007649 Ry
     internal energy E=F+TS    =      -0.68940682 Ry

     The total energy is F=E-TS. E is the sum of the following terms:
     one-electron contribution =       0.42914342 Ry
     hartree contribution      =       0.00108375 Ry
     xc contribution           =      -0.54922118 Ry
     ewald contribution        =      -0.57041280 Ry

     convergence has been achieved in   3 iterations

     Forces acting on atoms (cartesian axes, Ry/au):

     atom    1 type  1   force =     0.00000000    0.00000000    0.00000000

     Total force =     0.000000     Total SCF correction =     0.000000


     Computing stress (Cartesian axis) and pressure

          total   stress  (Ry/bohr**3)                   (kbar)     P=       -4.77
  -0.00003245   0.00000000  -0.00000000           -4.77        0.00       -0.00
   0.00000000  -0.00003245   0.00000000            0.00       -4.77        0.00
  -0.00000000   0.00000000  -0.00003245           -0.00        0.00       -4.77


     Writing all to output data dir ./QE-outdir/li.save/ :
     XML data file, charge density, pseudopotentials, collected wavefunctions

     init_run     :      0.04s CPU      0.06s WALL (       1 calls)
     electrons    :      0.13s CPU      0.21s WALL (       1 calls)
     forces       :      0.00s CPU      0.00s WALL (       1 calls)
     stress       :      0.02s CPU      0.02s WALL (       1 calls)

     Called by init_run:
     wfcinit      :      0.03s CPU      0.04s WALL (       1 calls)
     potinit      :      0.00s CPU      0.00s WALL (       1 calls)
     hinit0       :      0.01s CPU      0.01s WALL (       1 calls)

     Called by electrons:
     c_bands      :      0.12s CPU      0.20s WALL (       4 calls)
     sum_band     :      0.01s CPU      0.01s WALL (       4 calls)
     v_of_rho     :      0.00s CPU      0.00s WALL (       4 calls)
     mix_rho      :      0.00s CPU      0.00s WALL (       4 calls)

     Called by c_bands:
     init_us_2    :      0.01s CPU      0.01s WALL (     484 calls)
     cegterg      :      0.11s CPU      0.19s WALL (     176 calls)

     Called by *egterg:
     cdiaghg      :      0.07s CPU      0.16s WALL (     600 calls)
     h_psi        :      0.05s CPU      0.06s WALL (     688 calls)
     g_psi        :      0.00s CPU      0.00s WALL (     468 calls)

     Called by h_psi:
     h_psi:calbec :      0.00s CPU      0.00s WALL (     688 calls)
     vloc_psi     :      0.05s CPU      0.05s WALL (     688 calls)
                                        0.00s GPU  (     688 calls)
     add_vuspsi   :      0.00s CPU      0.00s WALL (     688 calls)

     General routines
     calbec       :      0.01s CPU      0.01s WALL (    1436 calls)
     fft          :      0.00s CPU      0.00s WALL (      20 calls)
     ffts         :      0.00s CPU      0.00s WALL (       4 calls)
     fftw         :      0.04s CPU      0.05s WALL (    7268 calls)

     Parallel routines

     PWSCF        :      0.20s CPU      0.31s WALL


   This run was terminated on:  23:30:57  31Jan2026            

=------------------------------------------------------------------------------=
   JOB DONE.
=------------------------------------------------------------------------------=
