
     Program PWSCF v.7.5 starts on 31Jan2026 at 23:30:52 

     This program is part of the open-source Quantum ESPRESSO suite
     for quantum simulation of materials; please cite
         "P. Giannozzi et al., J. Phys.:Condens. Matter 21 395502 (2009);
         "P. Giannozzi et al., J. Phys.:Condens. Matter 29 465901 (2017);
         "P. Giannozzi et al., J. Chem. Phys. 152 154105 (2020);
          URL http://www.quantum-espresso.org", 
     in publications or presentations arising from this work. More details at
     http://www.quantum-espresso.org/quote

     Parallel version (MPI), running on     1 processors

     MPI processes distributed on     1 nodes
     0 MiB available memory on the printing compute node when the environment starts

     Waiting for input...
     Reading input from standard input
     Message from routine read_cards :
     DEPRECATED: no units specified in ATOMIC_POSITIONS card
     Message from routine read_cards :
     ATOMIC_POSITIONS: units set to alat

     Current dimensions of program PWSCF are:
     Max number of different atomic species (ntypx) = 10
     Max number of k-points (npk) =  40000
     Max angular momentum in pseudopotentials (lmaxx) =  4
     file Li.pbe-mt_fhi.UPF: wavefunction(s)  2p 4f renormalized

     IMPORTANT: XC functional enforced from input :
     Exchange-correlation= PZ
                           (   1   1   0   0   0   0   0)
     Any further DFT definition will be discarded
     Please, verify this is what you really want


     Subspace diagonalization in iterative solution of the eigenvalue problem:
     a serial algorithm will be used


     G-vector sticks info
     --------------------
     sticks:   dense  smooth     PW     G-vecs:    dense   smooth      PW
     Sum         173     173     63                 1481     1481     321

     Using Slab Decomposition



     bravais-lattice index     =            3
     lattice parameter (alat)  =       6.2300  a.u.
     unit-cell volume          =     120.9022 (a.u.)^3
     number of atoms/cell      =            1
     number of atomic types    =            1
     number of electrons       =         1.00
     number of Kohn-Sham states=            5
     kinetic-energy cutoff     =      20.0000  Ry
     charge density cutoff     =      80.0000  Ry
     scf convergence threshold =      1.0E-08
     mixing beta               =       0.7000
     number of iterations used =            8  plain     mixing
     Exchange-correlation= PZ
                           (   1   1   0   0   0   0   0)

     celldm(1)=   6.230000  celldm(2)=   0.000000  celldm(3)=   0.000000
     celldm(4)=   0.000000  celldm(5)=   0.000000  celldm(6)=   0.000000

     crystal axes: (cart. coord. in units of alat)
               a(1) = (   0.500000   0.500000   0.500000 )  
               a(2) = (  -0.500000   0.500000   0.500000 )  
               a(3) = (  -0.500000  -0.500000   0.500000 )  

     reciprocal axes: (cart. coord. in units 2 pi/alat)
               b(1) = (  1.000000  0.000000  1.000000 )  
               b(2) = ( -1.000000  1.000000  0.000000 )  
               b(3) = (  0.000000 -1.000000  1.000000 )  


     PseudoPot. # 1 for Li read from file:
     ./pseudopot/Li.pbe-mt_fhi.UPF
     MD5 check sum: 3419f5616d131090147e867976aae79b
     Pseudo is Norm-conserving + core correction, Zval =  1.0
     Generated using FHI98PP, converted with fhi2upf.x v.5.0.2
     Using radial grid of  433 points,  3 beta functions with: 
                l(1) =   0
                l(2) =   1
                l(3) =   3

     atomic species   valence    mass     pseudopotential
     Li                1.00     6.94000     Li( 1.00)

     48 Sym. Ops., with inversion, found



   Cartesian axes

     site n.     atom                  positions (alat units)
         1        Li     tau(   1) = (   0.0000000   0.0000000   0.0000000  )

     number of k points=    44  Methfessel-Paxton smearing, width (Ry)=  0.0100
                       cart. coord. in units 2pi/alat
        k(    1) = (   0.0000000   0.0000000   0.1000000), wk =   0.0120000
        k(    2) = (   0.0000000  -0.1000000   0.2000000), wk =   0.0480000
        k(    3) = (   0.0000000  -0.2000000   0.3000000), wk =   0.0480000
        k(    4) = (   0.0000000  -0.3000000   0.4000000), wk =   0.0480000
        k(    5) = (   0.0000000  -0.4000000   0.5000000), wk =   0.0480000
        k(    6) = (  -0.1000000   0.1000000   0.1000000), wk =   0.0160000
        k(    7) = (  -0.1000000  -0.1000000   0.3000000), wk =   0.0480000
        k(    8) = (  -0.1000000  -0.2000000   0.4000000), wk =   0.0960000
        k(    9) = (  -0.1000000  -0.3000000   0.5000000), wk =   0.0960000
        k(   10) = (  -0.1000000   0.6000000  -0.4000000), wk =   0.0480000
        k(   11) = (  -0.2000000   0.2000000   0.1000000), wk =   0.0480000
        k(   12) = (  -0.2000000  -0.2000000   0.5000000), wk =   0.0480000
        k(   13) = (  -0.2000000   0.7000000  -0.4000000), wk =   0.0960000
        k(   14) = (  -0.3000000   0.3000000   0.1000000), wk =   0.0480000
        k(   15) = (  -0.3000000   0.2000000   0.2000000), wk =   0.0480000
        k(   16) = (  -0.3000000   0.7000000  -0.3000000), wk =   0.0160000
        k(   17) = (  -0.4000000   0.4000000   0.1000000), wk =   0.0480000
        k(   18) = (  -0.4000000   0.3000000   0.2000000), wk =   0.0960000
        k(   19) = (   0.5000000  -0.5000000   0.1000000), wk =   0.0240000
        k(   20) = (   0.5000000  -0.6000000   0.2000000), wk =   0.0960000
        k(   21) = (   0.5000000  -0.7000000   0.3000000), wk =   0.0480000
        k(   22) = (   0.4000000  -0.6000000   0.3000000), wk =   0.0480000
        k(   23) = (   0.0000000   0.0000000   0.3000000), wk =   0.0120000
        k(   24) = (   0.0000000  -0.1000000   0.4000000), wk =   0.0480000
        k(   25) = (   0.0000000  -0.2000000   0.5000000), wk =   0.0480000
        k(   26) = (   0.0000000  -0.3000000   0.6000000), wk =   0.0480000
        k(   27) = (  -0.1000000  -0.1000000   0.5000000), wk =   0.0480000
        k(   28) = (  -0.1000000  -0.2000000   0.6000000), wk =   0.0960000
        k(   29) = (  -0.1000000   0.7000000  -0.3000000), wk =   0.0480000
        k(   30) = (  -0.2000000   0.8000000  -0.3000000), wk =   0.0480000
        k(   31) = (  -0.3000000   0.3000000   0.3000000), wk =   0.0160000
        k(   32) = (   0.6000000  -0.6000000   0.3000000), wk =   0.0480000
        k(   33) = (   0.5000000  -0.5000000   0.3000000), wk =   0.0240000
        k(   34) = (   0.5000000  -0.6000000   0.4000000), wk =   0.0480000
        k(   35) = (   0.0000000   0.0000000   0.5000000), wk =   0.0120000
        k(   36) = (   0.0000000  -0.1000000   0.6000000), wk =   0.0480000
        k(   37) = (   0.0000000  -0.2000000   0.7000000), wk =   0.0480000
        k(   38) = (  -0.1000000  -0.1000000   0.7000000), wk =   0.0480000
        k(   39) = (  -0.1000000   0.8000000  -0.2000000), wk =   0.0480000
        k(   40) = (   0.5000000  -0.5000000   0.5000000), wk =   0.0040000
        k(   41) = (   0.0000000   0.0000000   0.7000000), wk =   0.0120000
        k(   42) = (   0.0000000  -0.1000000   0.8000000), wk =   0.0480000
        k(   43) = (  -0.1000000   0.9000000  -0.1000000), wk =   0.0160000
        k(   44) = (   0.0000000   0.0000000   0.9000000), wk =   0.0120000

     Dense  grid:     1481 G-vectors     FFT dimensions: (  15,  15,  15)

     Estimated max dynamical RAM per process >       1.86 MB

     Initial potential from superposition of free atoms

     starting charge       0.9960, renormalised to       1.0000
     Starting wfcs are   16 randomized atomic wfcs

     total cpu time spent up to now is        0.1 secs

     Self-consistent Calculation

     iteration #  1     ecut=    20.00 Ry     beta= 0.70
     Davidson diagonalization with overlap
     ethr =  1.00E-02,  avg # of iterations =  4.3

     Threshold (ethr) on eigenvalues was too large:
     Diagonalizing with lowered threshold

     Davidson diagonalization with overlap
     ethr =  2.32E-05,  avg # of iterations =  3.6

     total cpu time spent up to now is        0.2 secs

     total energy              =      -0.68944642 Ry
     estimated scf accuracy    <       0.00023267 Ry

     iteration #  2     ecut=    20.00 Ry     beta= 0.70
     Davidson diagonalization with overlap
     ethr =  2.33E-05,  avg # of iterations =  1.0

     total cpu time spent up to now is        0.2 secs

     total energy              =      -0.68944337 Ry
     estimated scf accuracy    <       0.00002006 Ry

     iteration #  3     ecut=    20.00 Ry     beta= 0.70
     Davidson diagonalization with overlap
     ethr =  2.01E-06,  avg # of iterations =  1.4

     total cpu time spent up to now is        0.3 secs

     End of self-consistent calculation

          k = 0.0000 0.0000 0.1000 (   185 PWs)   bands (ev):

    -2.9216  15.9633  15.9633  16.2830  20.3393

          k = 0.0000-0.1000 0.2000 (   185 PWs)   bands (ev):

    -2.5203  13.5593  14.5090  15.6954  18.5405

          k = 0.0000-0.2000 0.3000 (   183 PWs)   bands (ev):

    -1.7197  10.1742  13.0921  14.7995  17.7164

          k = 0.0000-0.3000 0.4000 (   182 PWs)   bands (ev):

    -0.5516   7.0912  12.0876  14.0175  16.6347

          k = 0.0000-0.4000 0.5000 (   183 PWs)   bands (ev):

     0.7329   4.8199  11.5751  13.5894  16.0908

          k =-0.1000 0.1000 0.1000 (   189 PWs)   bands (ev):

    -2.7216  14.9050  15.2626  15.2626  19.6091

          k =-0.1000-0.1000 0.3000 (   179 PWs)   bands (ev):

    -1.9158  11.6370  12.3191  14.9444  17.5858

          k =-0.1000-0.2000 0.4000 (   181 PWs)   bands (ev):

    -0.9151   8.6007  10.9945  14.0907  17.6064

          k =-0.1000-0.3000 0.5000 (   183 PWs)   bands (ev):

     0.4056   5.8687  10.2583  13.4555  17.7041

          k =-0.1000 0.6000-0.4000 (   180 PWs)   bands (ev):

     1.3581   4.4327  10.0130  13.2303  17.6462

          k =-0.2000 0.2000 0.1000 (   182 PWs)   bands (ev):

    -2.1206  11.9067  13.6320  13.9393  19.0636

          k =-0.2000-0.2000 0.5000 (   179 PWs)   bands (ev):

     0.2819   6.7458   9.0734  13.5677  17.8584

          k =-0.2000 0.7000-0.4000 (   182 PWs)   bands (ev):

     1.7158   4.6967   8.3161  13.2493  18.4429

          k =-0.3000 0.3000 0.1000 (   179 PWs)   bands (ev):

    -1.1275   8.5732  12.5591  12.7881  18.2784

          k =-0.3000 0.2000 0.2000 (   179 PWs)   bands (ev):

    -1.3192   9.9430  11.1030  12.6829  20.0122

          k =-0.3000 0.7000-0.3000 (   185 PWs)   bands (ev):

     3.2554   3.2554   7.5734  13.1861  19.8145

          k =-0.4000 0.4000 0.1000 (   183 PWs)   bands (ev):

     0.1736   5.8008  11.8839  12.0541  17.6469

          k =-0.4000 0.3000 0.2000 (   180 PWs)   bands (ev):

    -0.1338   7.1220   9.8799  11.9390  20.1223

          k = 0.5000-0.5000 0.1000 (   182 PWs)   bands (ev):

     1.0878   4.3890  11.6548  11.8045  17.4196

          k = 0.5000-0.6000 0.2000 (   182 PWs)   bands (ev):

     1.2322   4.8135   9.3527  11.5564  19.9598

          k = 0.5000-0.7000 0.3000 (   181 PWs)   bands (ev):

     1.2373   5.4262   8.0809  11.5089  21.5956

          k = 0.4000-0.6000 0.3000 (   179 PWs)   bands (ev):

     2.4489   3.9897   7.5847  11.3635  21.7438

          k = 0.0000 0.0000 0.3000 (   177 PWs)   bands (ev):

    -2.1133  12.9144  12.9145  15.2038  15.9218

          k = 0.0000-0.1000 0.4000 (   181 PWs)   bands (ev):

    -1.3006  10.2842  11.4375  14.5432  15.4419

          k = 0.0000-0.2000 0.5000 (   183 PWs)   bands (ev):

    -0.1074   7.3078  10.4069  13.8692  16.3139

          k = 0.0000-0.3000 0.6000 (   183 PWs)   bands (ev):

     1.2417   5.0076   9.8839  13.5096  17.4462

          k =-0.1000-0.1000 0.5000 (   182 PWs)   bands (ev):

    -0.2789   8.5114   9.6789  14.5526  14.6360

          k =-0.1000-0.2000 0.6000 (   184 PWs)   bands (ev):

     1.0940   6.0900   8.7708  14.0708  15.6441

          k =-0.1000 0.7000-0.3000 (   181 PWs)   bands (ev):

     2.1665   4.5973   8.5039  13.8843  16.6351

          k =-0.2000 0.8000-0.3000 (   187 PWs)   bands (ev):

     2.6139   4.5852   7.6336  14.7473  15.8152

          k =-0.3000 0.3000 0.3000 (   183 PWs)   bands (ev):

    -0.3179   8.6530   8.6530  11.2484  21.7872

          k = 0.6000-0.6000 0.3000 (   182 PWs)   bands (ev):

     1.0536   5.9627   7.8646  10.7247  22.9651

          k = 0.5000-0.5000 0.3000 (   176 PWs)   bands (ev):

     2.1793   4.3704   7.6002  10.5666  22.8543

          k = 0.5000-0.6000 0.4000 (   179 PWs)   bands (ev):

     2.6022   4.6245   6.3545  10.3589  24.1684

          k = 0.0000 0.0000 0.5000 (   184 PWs)   bands (ev):

    -0.4634   9.9372   9.9372  12.6047  14.5328

          k = 0.0000-0.1000 0.6000 (   186 PWs)   bands (ev):

     0.7751   7.7430   8.8969  12.3885  14.5784

          k = 0.0000-0.2000 0.7000 (   187 PWs)   bands (ev):

     2.2436   5.4555   8.3700  12.6889  15.4952

          k =-0.1000-0.1000 0.7000 (   187 PWs)   bands (ev):

     2.2118   6.3741   7.7693  12.4108  14.4861

          k =-0.1000 0.8000-0.2000 (   192 PWs)   bands (ev):

     3.4997   4.9227   7.4035  12.9591  14.7563

          k = 0.5000-0.5000 0.5000 (   180 PWs)   bands (ev):

     4.3561   4.3561   4.3561  10.0786  26.4401

          k = 0.0000 0.0000 0.7000 (   184 PWs)   bands (ev):

     2.0771   7.8525   7.8525  10.3926  14.0460

          k = 0.0000-0.1000 0.8000 (   188 PWs)   bands (ev):

     3.6917   6.2160   7.3235  10.7626  13.1336

          k =-0.1000 0.9000-0.1000 (   188 PWs)   bands (ev):

     5.2969   5.2969   6.8539  11.3278  11.3278

          k = 0.0000 0.0000 0.9000 (   188 PWs)   bands (ev):

     5.4359   6.7937   6.7937   9.2864  10.5718

     the Fermi energy is     0.7920 ev

!    total energy              =      -0.68944342 Ry
     estimated scf accuracy    <          2.7E-10 Ry
     smearing contrib. (-TS)   =      -0.00007683 Ry
     internal energy E=F+TS    =      -0.68936659 Ry

     The total energy is F=E-TS. E is the sum of the following terms:
     one-electron contribution =       0.45242537 Ry
     hartree contribution      =       0.00121125 Ry
     xc contribution           =      -0.55885657 Ry
     ewald contribution        =      -0.58414665 Ry

     convergence has been achieved in   3 iterations

     Forces acting on atoms (cartesian axes, Ry/au):

     atom    1 type  1   force =     0.00000000    0.00000000    0.00000000

     Total force =     0.000000     Total SCF correction =     0.000000


     Computing stress (Cartesian axis) and pressure

          total   stress  (Ry/bohr**3)                   (kbar)     P=        6.17
   0.00004195  -0.00000000   0.00000000            6.17       -0.00        0.00
  -0.00000000   0.00004195  -0.00000000           -0.00        6.17       -0.00
   0.00000000  -0.00000000   0.00004195            0.00       -0.00        6.17


     Writing all to output data dir ./QE-outdir/li.save/ :
     XML data file, charge density, pseudopotentials, collected wavefunctions

     init_run     :      0.04s CPU      0.06s WALL (       1 calls)
     electrons    :      0.12s CPU      0.21s WALL (       1 calls)
     forces       :      0.00s CPU      0.00s WALL (       1 calls)
     stress       :      0.02s CPU      0.02s WALL (       1 calls)

     Called by init_run:
     wfcinit      :      0.03s CPU      0.04s WALL (       1 calls)
     potinit      :      0.00s CPU      0.00s WALL (       1 calls)
     hinit0       :      0.01s CPU      0.01s WALL (       1 calls)

     Called by electrons:
     c_bands      :      0.11s CPU      0.20s WALL (       4 calls)
     sum_band     :      0.01s CPU      0.01s WALL (       4 calls)
     v_of_rho     :      0.00s CPU      0.00s WALL (       4 calls)
     mix_rho      :      0.00s CPU      0.00s WALL (       4 calls)

     Called by c_bands:
     init_us_2    :      0.01s CPU      0.01s WALL (     484 calls)
     cegterg      :      0.11s CPU      0.19s WALL (     176 calls)

     Called by *egterg:
     cdiaghg      :      0.07s CPU      0.16s WALL (     589 calls)
     h_psi        :      0.05s CPU      0.05s WALL (     677 calls)
     g_psi        :      0.00s CPU      0.00s WALL (     457 calls)

     Called by h_psi:
     h_psi:calbec :      0.00s CPU      0.00s WALL (     677 calls)
     vloc_psi     :      0.05s CPU      0.05s WALL (     677 calls)
                                        0.00s GPU  (     677 calls)
     add_vuspsi   :      0.00s CPU      0.00s WALL (     677 calls)

     General routines
     calbec       :      0.01s CPU      0.01s WALL (    1425 calls)
     fft          :      0.00s CPU      0.00s WALL (      20 calls)
     ffts         :      0.00s CPU      0.00s WALL (       4 calls)
     fftw         :      0.04s CPU      0.04s WALL (    7196 calls)

     Parallel routines

     PWSCF        :      0.19s CPU      0.30s WALL


   This run was terminated on:  23:30:52  31Jan2026            

=------------------------------------------------------------------------------=
   JOB DONE.
=------------------------------------------------------------------------------=
