
     Program PWSCF v.7.5 starts on 31Jan2026 at 23:31: 4 

     This program is part of the open-source Quantum ESPRESSO suite
     for quantum simulation of materials; please cite
         "P. Giannozzi et al., J. Phys.:Condens. Matter 21 395502 (2009);
         "P. Giannozzi et al., J. Phys.:Condens. Matter 29 465901 (2017);
         "P. Giannozzi et al., J. Chem. Phys. 152 154105 (2020);
          URL http://www.quantum-espresso.org", 
     in publications or presentations arising from this work. More details at
     http://www.quantum-espresso.org/quote

     Parallel version (MPI), running on     1 processors

     MPI processes distributed on     1 nodes
     0 MiB available memory on the printing compute node when the environment starts

     Waiting for input...
     Reading input from standard input
     Message from routine read_cards :
     DEPRECATED: no units specified in ATOMIC_POSITIONS card
     Message from routine read_cards :
     ATOMIC_POSITIONS: units set to alat

     Current dimensions of program PWSCF are:
     Max number of different atomic species (ntypx) = 10
     Max number of k-points (npk) =  40000
     Max angular momentum in pseudopotentials (lmaxx) =  4
     file Li.pbe-mt_fhi.UPF: wavefunction(s)  2p 4f renormalized

     IMPORTANT: XC functional enforced from input :
     Exchange-correlation= PZ
                           (   1   1   0   0   0   0   0)
     Any further DFT definition will be discarded
     Please, verify this is what you really want


     Subspace diagonalization in iterative solution of the eigenvalue problem:
     a serial algorithm will be used


     G-vector sticks info
     --------------------
     sticks:   dense  smooth     PW     G-vecs:    dense   smooth      PW
     Sum         197     197     67                 1721     1721     369

     Using Slab Decomposition



     bravais-lattice index     =            3
     lattice parameter (alat)  =       6.5800  a.u.
     unit-cell volume          =     142.4452 (a.u.)^3
     number of atoms/cell      =            1
     number of atomic types    =            1
     number of electrons       =         1.00
     number of Kohn-Sham states=            5
     kinetic-energy cutoff     =      20.0000  Ry
     charge density cutoff     =      80.0000  Ry
     scf convergence threshold =      1.0E-08
     mixing beta               =       0.7000
     number of iterations used =            8  plain     mixing
     Exchange-correlation= PZ
                           (   1   1   0   0   0   0   0)

     celldm(1)=   6.580000  celldm(2)=   0.000000  celldm(3)=   0.000000
     celldm(4)=   0.000000  celldm(5)=   0.000000  celldm(6)=   0.000000

     crystal axes: (cart. coord. in units of alat)
               a(1) = (   0.500000   0.500000   0.500000 )  
               a(2) = (  -0.500000   0.500000   0.500000 )  
               a(3) = (  -0.500000  -0.500000   0.500000 )  

     reciprocal axes: (cart. coord. in units 2 pi/alat)
               b(1) = (  1.000000  0.000000  1.000000 )  
               b(2) = ( -1.000000  1.000000  0.000000 )  
               b(3) = (  0.000000 -1.000000  1.000000 )  


     PseudoPot. # 1 for Li read from file:
     ./pseudopot/Li.pbe-mt_fhi.UPF
     MD5 check sum: 3419f5616d131090147e867976aae79b
     Pseudo is Norm-conserving + core correction, Zval =  1.0
     Generated using FHI98PP, converted with fhi2upf.x v.5.0.2
     Using radial grid of  433 points,  3 beta functions with: 
                l(1) =   0
                l(2) =   1
                l(3) =   3

     atomic species   valence    mass     pseudopotential
     Li                1.00     6.94000     Li( 1.00)

     48 Sym. Ops., with inversion, found



   Cartesian axes

     site n.     atom                  positions (alat units)
         1        Li     tau(   1) = (   0.0000000   0.0000000   0.0000000  )

     number of k points=    44  Methfessel-Paxton smearing, width (Ry)=  0.0100
                       cart. coord. in units 2pi/alat
        k(    1) = (   0.0000000   0.0000000   0.1000000), wk =   0.0120000
        k(    2) = (   0.0000000  -0.1000000   0.2000000), wk =   0.0480000
        k(    3) = (   0.0000000  -0.2000000   0.3000000), wk =   0.0480000
        k(    4) = (   0.0000000  -0.3000000   0.4000000), wk =   0.0480000
        k(    5) = (   0.0000000  -0.4000000   0.5000000), wk =   0.0480000
        k(    6) = (  -0.1000000   0.1000000   0.1000000), wk =   0.0160000
        k(    7) = (  -0.1000000  -0.1000000   0.3000000), wk =   0.0480000
        k(    8) = (  -0.1000000  -0.2000000   0.4000000), wk =   0.0960000
        k(    9) = (  -0.1000000  -0.3000000   0.5000000), wk =   0.0960000
        k(   10) = (  -0.1000000   0.6000000  -0.4000000), wk =   0.0480000
        k(   11) = (  -0.2000000   0.2000000   0.1000000), wk =   0.0480000
        k(   12) = (  -0.2000000  -0.2000000   0.5000000), wk =   0.0480000
        k(   13) = (  -0.2000000   0.7000000  -0.4000000), wk =   0.0960000
        k(   14) = (  -0.3000000   0.3000000   0.1000000), wk =   0.0480000
        k(   15) = (  -0.3000000   0.2000000   0.2000000), wk =   0.0480000
        k(   16) = (  -0.3000000   0.7000000  -0.3000000), wk =   0.0160000
        k(   17) = (  -0.4000000   0.4000000   0.1000000), wk =   0.0480000
        k(   18) = (  -0.4000000   0.3000000   0.2000000), wk =   0.0960000
        k(   19) = (   0.5000000  -0.5000000   0.1000000), wk =   0.0240000
        k(   20) = (   0.5000000  -0.6000000   0.2000000), wk =   0.0960000
        k(   21) = (   0.5000000  -0.7000000   0.3000000), wk =   0.0480000
        k(   22) = (   0.4000000  -0.6000000   0.3000000), wk =   0.0480000
        k(   23) = (   0.0000000   0.0000000   0.3000000), wk =   0.0120000
        k(   24) = (   0.0000000  -0.1000000   0.4000000), wk =   0.0480000
        k(   25) = (   0.0000000  -0.2000000   0.5000000), wk =   0.0480000
        k(   26) = (   0.0000000  -0.3000000   0.6000000), wk =   0.0480000
        k(   27) = (  -0.1000000  -0.1000000   0.5000000), wk =   0.0480000
        k(   28) = (  -0.1000000  -0.2000000   0.6000000), wk =   0.0960000
        k(   29) = (  -0.1000000   0.7000000  -0.3000000), wk =   0.0480000
        k(   30) = (  -0.2000000   0.8000000  -0.3000000), wk =   0.0480000
        k(   31) = (  -0.3000000   0.3000000   0.3000000), wk =   0.0160000
        k(   32) = (   0.6000000  -0.6000000   0.3000000), wk =   0.0480000
        k(   33) = (   0.5000000  -0.5000000   0.3000000), wk =   0.0240000
        k(   34) = (   0.5000000  -0.6000000   0.4000000), wk =   0.0480000
        k(   35) = (   0.0000000   0.0000000   0.5000000), wk =   0.0120000
        k(   36) = (   0.0000000  -0.1000000   0.6000000), wk =   0.0480000
        k(   37) = (   0.0000000  -0.2000000   0.7000000), wk =   0.0480000
        k(   38) = (  -0.1000000  -0.1000000   0.7000000), wk =   0.0480000
        k(   39) = (  -0.1000000   0.8000000  -0.2000000), wk =   0.0480000
        k(   40) = (   0.5000000  -0.5000000   0.5000000), wk =   0.0040000
        k(   41) = (   0.0000000   0.0000000   0.7000000), wk =   0.0120000
        k(   42) = (   0.0000000  -0.1000000   0.8000000), wk =   0.0480000
        k(   43) = (  -0.1000000   0.9000000  -0.1000000), wk =   0.0160000
        k(   44) = (   0.0000000   0.0000000   0.9000000), wk =   0.0120000

     Dense  grid:     1721 G-vectors     FFT dimensions: (  18,  18,  18)

     Estimated max dynamical RAM per process >       2.25 MB

     Initial potential from superposition of free atoms

     starting charge       0.9960, renormalised to       1.0000
     Starting wfcs are   16 randomized atomic wfcs

     total cpu time spent up to now is        0.1 secs

     Self-consistent Calculation

     iteration #  1     ecut=    20.00 Ry     beta= 0.70
     Davidson diagonalization with overlap
     ethr =  1.00E-02,  avg # of iterations =  4.6

     Threshold (ethr) on eigenvalues was too large:
     Diagonalizing with lowered threshold

     Davidson diagonalization with overlap
     ethr =  1.64E-05,  avg # of iterations =  3.9

     total cpu time spent up to now is        0.3 secs

     total energy              =      -0.68860499 Ry
     estimated scf accuracy    <       0.00016409 Ry

     iteration #  2     ecut=    20.00 Ry     beta= 0.70
     Davidson diagonalization with overlap
     ethr =  1.64E-05,  avg # of iterations =  1.0

     total cpu time spent up to now is        0.3 secs

     total energy              =      -0.68860313 Ry
     estimated scf accuracy    <       0.00001437 Ry

     iteration #  3     ecut=    20.00 Ry     beta= 0.70
     Davidson diagonalization with overlap
     ethr =  1.44E-06,  avg # of iterations =  1.3

     total cpu time spent up to now is        0.4 secs

     End of self-consistent calculation

          k = 0.0000 0.0000 0.1000 (   213 PWs)   bands (ev):

    -3.1489  13.8549  13.8549  14.1179  17.9870

          k = 0.0000-0.1000 0.2000 (   212 PWs)   bands (ev):

    -2.7708  11.7449  12.5867  13.6153  16.3167

          k = 0.0000-0.2000 0.3000 (   211 PWs)   bands (ev):

    -2.0174   8.7196  11.3333  12.8469  15.5960

          k = 0.0000-0.3000 0.4000 (   212 PWs)   bands (ev):

    -0.9153   5.9227  10.4403  12.1660  14.6272

          k = 0.0000-0.4000 0.5000 (   211 PWs)   bands (ev):

     0.3234   3.8097   9.9842  11.7906  14.1402

          k =-0.1000 0.1000 0.1000 (   213 PWs)   bands (ev):

    -2.9602  12.8921  13.2705  13.2706  17.2570

          k =-0.1000-0.1000 0.3000 (   211 PWs)   bands (ev):

    -2.2027  10.0861  10.5928  12.9624  15.4620

          k =-0.1000-0.2000 0.4000 (   212 PWs)   bands (ev):

    -1.2631   7.3372   9.4179  12.2269  15.4526

          k =-0.1000-0.3000 0.5000 (   211 PWs)   bands (ev):

    -0.0153   4.8347   8.7618  11.6723  15.4936

          k =-0.1000 0.6000-0.4000 (   217 PWs)   bands (ev):

     0.9161   3.4734   8.5420  11.4735  15.4316

          k =-0.2000 0.2000 0.1000 (   212 PWs)   bands (ev):

    -2.3943  10.2853  11.7661  12.1302  16.7411

          k =-0.2000-0.2000 0.5000 (   218 PWs)   bands (ev):

    -0.1437   5.7337   7.5946  11.7660  15.7001

          k =-0.2000 0.7000-0.4000 (   219 PWs)   bands (ev):

     1.2062   3.8534   6.8971  11.4825  16.1886

          k =-0.3000 0.3000 0.1000 (   210 PWs)   bands (ev):

    -1.4595   7.2843  10.7997  11.1197  16.0537

          k =-0.3000 0.2000 0.2000 (   210 PWs)   bands (ev):

    -1.6412   8.5886   9.5124  10.9217  17.5322

          k =-0.3000 0.7000-0.3000 (   219 PWs)   bands (ev):

     2.6137   2.6137   6.1496  11.4201  17.4539

          k =-0.4000 0.4000 0.1000 (   212 PWs)   bands (ev):

    -0.2256   4.7470  10.1930  10.4710  15.4990

          k =-0.4000 0.3000 0.2000 (   216 PWs)   bands (ev):

    -0.5282   6.0235   8.4347  10.2266  17.6376

          k = 0.5000-0.5000 0.1000 (   212 PWs)   bands (ev):

     0.6743   3.4061   9.9870  10.2501  15.2985

          k = 0.5000-0.6000 0.2000 (   212 PWs)   bands (ev):

     0.7718   3.8848   7.9715   9.8699  17.5005

          k = 0.5000-0.7000 0.3000 (   214 PWs)   bands (ev):

     0.7511   4.5561   6.7386   9.8028  19.0119

          k = 0.4000-0.6000 0.3000 (   214 PWs)   bands (ev):

     1.8927   3.2350   6.2778   9.6588  19.0698

          k = 0.0000 0.0000 0.3000 (   213 PWs)   bands (ev):

    -2.3892  11.1894  11.1894  13.0987  14.0269

          k = 0.0000-0.1000 0.4000 (   214 PWs)   bands (ev):

    -1.6280   8.8438   9.8794  12.5618  13.5040

          k = 0.0000-0.2000 0.5000 (   221 PWs)   bands (ev):

    -0.5090   6.1499   8.9617  11.9519  14.2726

          k = 0.0000-0.3000 0.6000 (   213 PWs)   bands (ev):

     0.7790   4.0198   8.4955  11.6232  15.2671

          k =-0.1000-0.1000 0.5000 (   220 PWs)   bands (ev):

    -0.6750   7.3025   8.2395  12.5806  12.7619

          k =-0.1000-0.2000 0.6000 (   217 PWs)   bands (ev):

     0.6089   5.0957   7.4142  12.1505  13.6735

          k =-0.1000 0.7000-0.3000 (   212 PWs)   bands (ev):

     1.6391   3.6903   7.1752  11.9789  14.5554

          k =-0.2000 0.8000-0.3000 (   217 PWs)   bands (ev):

     2.0181   3.8014   6.2778  12.7325  13.8826

          k =-0.3000 0.3000 0.3000 (   222 PWs)   bands (ev):

    -0.7033   7.4406   7.4406   9.4416  19.1085

          k = 0.6000-0.6000 0.3000 (   216 PWs)   bands (ev):

     0.5789   5.0043   6.7376   8.9224  19.8884

          k = 0.5000-0.5000 0.3000 (   214 PWs)   bands (ev):

     1.6514   3.5198   6.5015   8.7662  20.0744

          k = 0.5000-0.6000 0.4000 (   218 PWs)   bands (ev):

     2.0106   3.8398   5.3445   8.5289  21.1991

          k = 0.0000 0.0000 0.5000 (   209 PWs)   bands (ev):

    -0.8507   8.5467   8.5467  11.0533  12.3870

          k = 0.0000-0.1000 0.6000 (   216 PWs)   bands (ev):

     0.2985   6.5799   7.6187  10.8009  12.4435

          k = 0.0000-0.2000 0.7000 (   218 PWs)   bands (ev):

     1.6761   4.4823   7.1482  10.9359  13.4010

          k =-0.1000-0.1000 0.7000 (   220 PWs)   bands (ev):

     1.6250   5.3935   6.5381  10.8465  12.3667

          k =-0.1000 0.8000-0.2000 (   220 PWs)   bands (ev):

     2.8303   4.0593   6.1908  11.2714  12.9368

          k = 0.5000-0.5000 0.5000 (   216 PWs)   bands (ev):

     3.6000   3.6000   3.6000   8.1944  23.2145

          k = 0.0000 0.0000 0.7000 (   220 PWs)   bands (ev):

     1.4902   6.6865   6.6865   9.0704  11.9288

          k = 0.0000-0.1000 0.8000 (   222 PWs)   bands (ev):

     2.9740   5.2144   6.2142   9.3602  11.3972

          k =-0.1000 0.9000-0.1000 (   224 PWs)   bands (ev):

     4.4303   4.4303   5.7390   9.8771   9.8771

          k = 0.0000 0.0000 0.9000 (   236 PWs)   bands (ev):

     4.5380   5.7410   5.7410   8.0789   9.1943

     the Fermi energy is     0.3499 ev

!    total energy              =      -0.68860318 Ry
     estimated scf accuracy    <          3.6E-10 Ry
     smearing contrib. (-TS)   =      -0.00005799 Ry
     internal energy E=F+TS    =      -0.68854519 Ry

     The total energy is F=E-TS. E is the sum of the following terms:
     one-electron contribution =       0.40073747 Ry
     hartree contribution      =       0.00092457 Ry
     xc contribution           =      -0.53713220 Ry
     ewald contribution        =      -0.55307503 Ry

     convergence has been achieved in   3 iterations

     Forces acting on atoms (cartesian axes, Ry/au):

     atom    1 type  1   force =     0.00000000    0.00000000    0.00000000

     Total force =     0.000000     Total SCF correction =     0.000000


     Computing stress (Cartesian axis) and pressure

          total   stress  (Ry/bohr**3)                   (kbar)     P=      -15.51
  -0.00010542  -0.00000000   0.00000000          -15.51       -0.00        0.00
  -0.00000000  -0.00010542  -0.00000000           -0.00      -15.51       -0.00
   0.00000000  -0.00000000  -0.00010542            0.00       -0.00      -15.51


     Writing all to output data dir ./QE-outdir/li.save/ :
     XML data file, charge density, pseudopotentials, collected wavefunctions

     init_run     :      0.06s CPU      0.08s WALL (       1 calls)
     electrons    :      0.22s CPU      0.31s WALL (       1 calls)
     forces       :      0.00s CPU      0.00s WALL (       1 calls)
     stress       :      0.03s CPU      0.03s WALL (       1 calls)

     Called by init_run:
     wfcinit      :      0.05s CPU      0.06s WALL (       1 calls)
     potinit      :      0.00s CPU      0.00s WALL (       1 calls)
     hinit0       :      0.01s CPU      0.01s WALL (       1 calls)

     Called by electrons:
     c_bands      :      0.19s CPU      0.28s WALL (       4 calls)
     sum_band     :      0.03s CPU      0.03s WALL (       4 calls)
     v_of_rho     :      0.00s CPU      0.00s WALL (       4 calls)
     mix_rho      :      0.00s CPU      0.00s WALL (       4 calls)

     Called by c_bands:
     init_us_2    :      0.01s CPU      0.01s WALL (     484 calls)
     cegterg      :      0.19s CPU      0.28s WALL (     176 calls)

     Called by *egterg:
     cdiaghg      :      0.07s CPU      0.17s WALL (     605 calls)
     h_psi        :      0.15s CPU      0.15s WALL (     693 calls)
     g_psi        :      0.00s CPU      0.00s WALL (     473 calls)

     Called by h_psi:
     h_psi:calbec :      0.00s CPU      0.00s WALL (     693 calls)
     vloc_psi     :      0.14s CPU      0.15s WALL (     693 calls)
                                        0.00s GPU  (     693 calls)
     add_vuspsi   :      0.00s CPU      0.00s WALL (     693 calls)

     General routines
     calbec       :      0.01s CPU      0.01s WALL (    1441 calls)
     fft          :      0.00s CPU      0.00s WALL (      20 calls)
     ffts         :      0.00s CPU      0.00s WALL (       4 calls)
     fftw         :      0.15s CPU      0.15s WALL (    7316 calls)

     Parallel routines

     PWSCF        :      0.32s CPU      0.43s WALL


   This run was terminated on:  23:31: 4  31Jan2026            

=------------------------------------------------------------------------------=
   JOB DONE.
=------------------------------------------------------------------------------=
