
     Program PWSCF v.7.5 starts on 31Jan2026 at 23:31: 4 

     This program is part of the open-source Quantum ESPRESSO suite
     for quantum simulation of materials; please cite
         "P. Giannozzi et al., J. Phys.:Condens. Matter 21 395502 (2009);
         "P. Giannozzi et al., J. Phys.:Condens. Matter 29 465901 (2017);
         "P. Giannozzi et al., J. Chem. Phys. 152 154105 (2020);
          URL http://www.quantum-espresso.org", 
     in publications or presentations arising from this work. More details at
     http://www.quantum-espresso.org/quote

     Parallel version (MPI), running on     1 processors

     MPI processes distributed on     1 nodes
     0 MiB available memory on the printing compute node when the environment starts

     Waiting for input...
     Reading input from standard input
     Message from routine read_cards :
     DEPRECATED: no units specified in ATOMIC_POSITIONS card
     Message from routine read_cards :
     ATOMIC_POSITIONS: units set to alat

     Current dimensions of program PWSCF are:
     Max number of different atomic species (ntypx) = 10
     Max number of k-points (npk) =  40000
     Max angular momentum in pseudopotentials (lmaxx) =  4
     file Li.pbe-mt_fhi.UPF: wavefunction(s)  2p 4f renormalized

     IMPORTANT: XC functional enforced from input :
     Exchange-correlation= PZ
                           (   1   1   0   0   0   0   0)
     Any further DFT definition will be discarded
     Please, verify this is what you really want


     Subspace diagonalization in iterative solution of the eigenvalue problem:
     a serial algorithm will be used


     G-vector sticks info
     --------------------
     sticks:   dense  smooth     PW     G-vecs:    dense   smooth      PW
     Sum         201     201     67                 1745     1745     369

     Using Slab Decomposition



     bravais-lattice index     =            3
     lattice parameter (alat)  =       6.5900  a.u.
     unit-cell volume          =     143.0956 (a.u.)^3
     number of atoms/cell      =            1
     number of atomic types    =            1
     number of electrons       =         1.00
     number of Kohn-Sham states=            5
     kinetic-energy cutoff     =      20.0000  Ry
     charge density cutoff     =      80.0000  Ry
     scf convergence threshold =      1.0E-08
     mixing beta               =       0.7000
     number of iterations used =            8  plain     mixing
     Exchange-correlation= PZ
                           (   1   1   0   0   0   0   0)

     celldm(1)=   6.590000  celldm(2)=   0.000000  celldm(3)=   0.000000
     celldm(4)=   0.000000  celldm(5)=   0.000000  celldm(6)=   0.000000

     crystal axes: (cart. coord. in units of alat)
               a(1) = (   0.500000   0.500000   0.500000 )  
               a(2) = (  -0.500000   0.500000   0.500000 )  
               a(3) = (  -0.500000  -0.500000   0.500000 )  

     reciprocal axes: (cart. coord. in units 2 pi/alat)
               b(1) = (  1.000000  0.000000  1.000000 )  
               b(2) = ( -1.000000  1.000000  0.000000 )  
               b(3) = (  0.000000 -1.000000  1.000000 )  


     PseudoPot. # 1 for Li read from file:
     ./pseudopot/Li.pbe-mt_fhi.UPF
     MD5 check sum: 3419f5616d131090147e867976aae79b
     Pseudo is Norm-conserving + core correction, Zval =  1.0
     Generated using FHI98PP, converted with fhi2upf.x v.5.0.2
     Using radial grid of  433 points,  3 beta functions with: 
                l(1) =   0
                l(2) =   1
                l(3) =   3

     atomic species   valence    mass     pseudopotential
     Li                1.00     6.94000     Li( 1.00)

     48 Sym. Ops., with inversion, found



   Cartesian axes

     site n.     atom                  positions (alat units)
         1        Li     tau(   1) = (   0.0000000   0.0000000   0.0000000  )

     number of k points=    44  Methfessel-Paxton smearing, width (Ry)=  0.0100
                       cart. coord. in units 2pi/alat
        k(    1) = (   0.0000000   0.0000000   0.1000000), wk =   0.0120000
        k(    2) = (   0.0000000  -0.1000000   0.2000000), wk =   0.0480000
        k(    3) = (   0.0000000  -0.2000000   0.3000000), wk =   0.0480000
        k(    4) = (   0.0000000  -0.3000000   0.4000000), wk =   0.0480000
        k(    5) = (   0.0000000  -0.4000000   0.5000000), wk =   0.0480000
        k(    6) = (  -0.1000000   0.1000000   0.1000000), wk =   0.0160000
        k(    7) = (  -0.1000000  -0.1000000   0.3000000), wk =   0.0480000
        k(    8) = (  -0.1000000  -0.2000000   0.4000000), wk =   0.0960000
        k(    9) = (  -0.1000000  -0.3000000   0.5000000), wk =   0.0960000
        k(   10) = (  -0.1000000   0.6000000  -0.4000000), wk =   0.0480000
        k(   11) = (  -0.2000000   0.2000000   0.1000000), wk =   0.0480000
        k(   12) = (  -0.2000000  -0.2000000   0.5000000), wk =   0.0480000
        k(   13) = (  -0.2000000   0.7000000  -0.4000000), wk =   0.0960000
        k(   14) = (  -0.3000000   0.3000000   0.1000000), wk =   0.0480000
        k(   15) = (  -0.3000000   0.2000000   0.2000000), wk =   0.0480000
        k(   16) = (  -0.3000000   0.7000000  -0.3000000), wk =   0.0160000
        k(   17) = (  -0.4000000   0.4000000   0.1000000), wk =   0.0480000
        k(   18) = (  -0.4000000   0.3000000   0.2000000), wk =   0.0960000
        k(   19) = (   0.5000000  -0.5000000   0.1000000), wk =   0.0240000
        k(   20) = (   0.5000000  -0.6000000   0.2000000), wk =   0.0960000
        k(   21) = (   0.5000000  -0.7000000   0.3000000), wk =   0.0480000
        k(   22) = (   0.4000000  -0.6000000   0.3000000), wk =   0.0480000
        k(   23) = (   0.0000000   0.0000000   0.3000000), wk =   0.0120000
        k(   24) = (   0.0000000  -0.1000000   0.4000000), wk =   0.0480000
        k(   25) = (   0.0000000  -0.2000000   0.5000000), wk =   0.0480000
        k(   26) = (   0.0000000  -0.3000000   0.6000000), wk =   0.0480000
        k(   27) = (  -0.1000000  -0.1000000   0.5000000), wk =   0.0480000
        k(   28) = (  -0.1000000  -0.2000000   0.6000000), wk =   0.0960000
        k(   29) = (  -0.1000000   0.7000000  -0.3000000), wk =   0.0480000
        k(   30) = (  -0.2000000   0.8000000  -0.3000000), wk =   0.0480000
        k(   31) = (  -0.3000000   0.3000000   0.3000000), wk =   0.0160000
        k(   32) = (   0.6000000  -0.6000000   0.3000000), wk =   0.0480000
        k(   33) = (   0.5000000  -0.5000000   0.3000000), wk =   0.0240000
        k(   34) = (   0.5000000  -0.6000000   0.4000000), wk =   0.0480000
        k(   35) = (   0.0000000   0.0000000   0.5000000), wk =   0.0120000
        k(   36) = (   0.0000000  -0.1000000   0.6000000), wk =   0.0480000
        k(   37) = (   0.0000000  -0.2000000   0.7000000), wk =   0.0480000
        k(   38) = (  -0.1000000  -0.1000000   0.7000000), wk =   0.0480000
        k(   39) = (  -0.1000000   0.8000000  -0.2000000), wk =   0.0480000
        k(   40) = (   0.5000000  -0.5000000   0.5000000), wk =   0.0040000
        k(   41) = (   0.0000000   0.0000000   0.7000000), wk =   0.0120000
        k(   42) = (   0.0000000  -0.1000000   0.8000000), wk =   0.0480000
        k(   43) = (  -0.1000000   0.9000000  -0.1000000), wk =   0.0160000
        k(   44) = (   0.0000000   0.0000000   0.9000000), wk =   0.0120000

     Dense  grid:     1745 G-vectors     FFT dimensions: (  18,  18,  18)

     Estimated max dynamical RAM per process >       2.26 MB

     Initial potential from superposition of free atoms

     starting charge       0.9960, renormalised to       1.0000
     Starting wfcs are   16 randomized atomic wfcs

     total cpu time spent up to now is        0.1 secs

     Self-consistent Calculation

     iteration #  1     ecut=    20.00 Ry     beta= 0.70
     Davidson diagonalization with overlap
     ethr =  1.00E-02,  avg # of iterations =  4.4

     Threshold (ethr) on eigenvalues was too large:
     Diagonalizing with lowered threshold

     Davidson diagonalization with overlap
     ethr =  1.63E-05,  avg # of iterations =  4.2

     total cpu time spent up to now is        0.3 secs

     total energy              =      -0.68853668 Ry
     estimated scf accuracy    <       0.00016280 Ry

     iteration #  2     ecut=    20.00 Ry     beta= 0.70
     Davidson diagonalization with overlap
     ethr =  1.63E-05,  avg # of iterations =  1.0

     total cpu time spent up to now is        0.3 secs

     total energy              =      -0.68853486 Ry
     estimated scf accuracy    <       0.00001426 Ry

     iteration #  3     ecut=    20.00 Ry     beta= 0.70
     Davidson diagonalization with overlap
     ethr =  1.43E-06,  avg # of iterations =  1.1

     total cpu time spent up to now is        0.4 secs

     End of self-consistent calculation

          k = 0.0000 0.0000 0.1000 (   213 PWs)   bands (ev):

    -3.1541  13.7999  13.7999  14.0613  17.9254

          k = 0.0000-0.1000 0.2000 (   212 PWs)   bands (ev):

    -2.7767  11.6975  12.5365  13.5609  16.2586

          k = 0.0000-0.2000 0.3000 (   211 PWs)   bands (ev):

    -2.0247   8.6816  11.2873  12.7959  15.5405

          k = 0.0000-0.3000 0.4000 (   212 PWs)   bands (ev):

    -0.9245   5.8923  10.3972  12.1176  14.5747

          k = 0.0000-0.4000 0.5000 (   211 PWs)   bands (ev):

     0.3128   3.7836   9.9427  11.7435  14.0891

          k =-0.1000 0.1000 0.1000 (   213 PWs)   bands (ev):

    -2.9658  12.8395  13.2184  13.2185  17.1954

          k =-0.1000-0.1000 0.3000 (   211 PWs)   bands (ev):

    -2.2096  10.0456  10.5478  12.9106  15.4063

          k =-0.1000-0.2000 0.4000 (   212 PWs)   bands (ev):

    -1.2718   7.3042   9.3768  12.1782  15.3959

          k =-0.1000-0.3000 0.5000 (   219 PWs)   bands (ev):

    -0.0263   4.8077   8.7225  11.6249  15.4356

          k =-0.1000 0.6000-0.4000 (   217 PWs)   bands (ev):

     0.9047   3.4485   8.5037  11.4276  15.3736

          k =-0.2000 0.2000 0.1000 (   212 PWs)   bands (ev):

    -2.4009  10.2429  11.7175  12.0828  16.6805

          k =-0.2000-0.2000 0.5000 (   218 PWs)   bands (ev):

    -0.1546   5.7073   7.5562  11.7190  15.6436

          k =-0.2000 0.7000-0.4000 (   219 PWs)   bands (ev):

     1.1930   3.8314   6.8604  11.4364  16.1296

          k =-0.3000 0.3000 0.1000 (   210 PWs)   bands (ev):

    -1.4678   7.2507  10.7538  11.0761  15.9955

          k =-0.3000 0.2000 0.2000 (   212 PWs)   bands (ev):

    -1.6492   8.5532   9.4707  10.8756  17.4671

          k =-0.3000 0.7000-0.3000 (   219 PWs)   bands (ev):

     2.5971   2.5971   6.1127  11.3740  17.3921

          k =-0.4000 0.4000 0.1000 (   212 PWs)   bands (ev):

    -0.2358   4.7197  10.1490  10.4296  15.4427

          k =-0.4000 0.3000 0.2000 (   216 PWs)   bands (ev):

    -0.5383   5.9948   8.3969  10.1822  17.5725

          k = 0.5000-0.5000 0.1000 (   212 PWs)   bands (ev):

     0.6636   3.3807   9.9435  10.2094  15.2430

          k = 0.5000-0.6000 0.2000 (   212 PWs)   bands (ev):

     0.7599   3.8606   7.9354   9.8263  17.4361

          k = 0.5000-0.7000 0.3000 (   214 PWs)   bands (ev):

     0.7385   4.5335   6.7035   9.7587  18.9443

          k = 0.4000-0.6000 0.3000 (   214 PWs)   bands (ev):

     1.8782   3.2153   6.2437   9.6148  18.9997

          k = 0.0000 0.0000 0.3000 (   213 PWs)   bands (ev):

    -2.3958  11.1444  11.1444  13.0438  13.9772

          k = 0.0000-0.1000 0.4000 (   215 PWs)   bands (ev):

    -1.6361   8.8062   9.8387  12.5096  13.4537

          k = 0.0000-0.2000 0.5000 (   221 PWs)   bands (ev):

    -0.5192   6.1198   8.9240  11.9018  14.2193

          k = 0.0000-0.3000 0.6000 (   213 PWs)   bands (ev):

     0.7670   3.9942   8.4593  11.5740  15.2102

          k =-0.1000-0.1000 0.5000 (   220 PWs)   bands (ev):

    -0.6850   7.2710   8.2019  12.5270  12.7151

          k =-0.1000-0.2000 0.6000 (   217 PWs)   bands (ev):

     0.5964   5.0697   7.3789  12.1002  13.6222

          k =-0.1000 0.7000-0.3000 (   212 PWs)   bands (ev):

     1.6254   3.6667   7.1407  11.9292  14.5011

          k =-0.2000 0.8000-0.3000 (   219 PWs)   bands (ev):

     2.0025   3.7810   6.2426  12.6797  13.8320

          k =-0.3000 0.3000 0.3000 (   222 PWs)   bands (ev):

    -0.7131   7.4089   7.4089   9.3947  19.0384

          k = 0.6000-0.6000 0.3000 (   216 PWs)   bands (ev):

     0.5666   4.9792   6.7082   8.8759  19.8146

          k = 0.5000-0.5000 0.3000 (   214 PWs)   bands (ev):

     1.6377   3.4977   6.4729   8.7198  20.0017

          k = 0.5000-0.6000 0.4000 (   222 PWs)   bands (ev):

     1.9952   3.8193   5.3180   8.4815  21.1212

          k = 0.0000 0.0000 0.5000 (   209 PWs)   bands (ev):

    -0.8605   8.5104   8.5104  11.0128  12.3310

          k = 0.0000-0.1000 0.6000 (   221 PWs)   bands (ev):

     0.2862   6.5492   7.5853  10.7591  12.3879

          k = 0.0000-0.2000 0.7000 (   218 PWs)   bands (ev):

     1.6614   4.4570   7.1163  10.8899  13.3465

          k =-0.1000-0.1000 0.7000 (   220 PWs)   bands (ev):

     1.6098   5.3679   6.5060  10.8056  12.3112

          k =-0.1000 0.8000-0.2000 (   220 PWs)   bands (ev):

     2.8129   4.0368   6.1593  11.2271  12.8892

          k = 0.5000-0.5000 0.5000 (   216 PWs)   bands (ev):

     3.5803   3.5803   3.5803   8.1458  23.1303

          k = 0.0000 0.0000 0.7000 (   220 PWs)   bands (ev):

     1.4750   6.6561   6.6561   9.0359  11.8732

          k = 0.0000-0.1000 0.8000 (   222 PWs)   bands (ev):

     2.9553   5.1882   6.1853   9.3235  11.3514

          k =-0.1000 0.9000-0.1000 (   224 PWs)   bands (ev):

     4.4078   4.4078   5.7099   9.8391   9.8391

          k = 0.0000 0.0000 0.9000 (   236 PWs)   bands (ev):

     4.5146   5.7135   5.7135   8.0473   9.1582

     the Fermi energy is     0.3386 ev

!    total energy              =      -0.68853491 Ry
     estimated scf accuracy    <          3.8E-10 Ry
     smearing contrib. (-TS)   =      -0.00005666 Ry
     internal energy E=F+TS    =      -0.68847824 Ry

     The total energy is F=E-TS. E is the sum of the following terms:
     one-electron contribution =       0.39938995 Ry
     hartree contribution      =       0.00091691 Ry
     xc contribution           =      -0.53654934 Ry
     ewald contribution        =      -0.55223576 Ry

     convergence has been achieved in   3 iterations

     Forces acting on atoms (cartesian axes, Ry/au):

     atom    1 type  1   force =     0.00000000    0.00000000    0.00000000

     Total force =     0.000000     Total SCF correction =     0.000000


     Computing stress (Cartesian axis) and pressure

          total   stress  (Ry/bohr**3)                   (kbar)     P=      -15.95
  -0.00010840   0.00000000  -0.00000000          -15.95        0.00       -0.00
   0.00000000  -0.00010840   0.00000000            0.00      -15.95        0.00
  -0.00000000   0.00000000  -0.00010840           -0.00        0.00      -15.95


     Writing all to output data dir ./QE-outdir/li.save/ :
     XML data file, charge density, pseudopotentials, collected wavefunctions

     init_run     :      0.06s CPU      0.08s WALL (       1 calls)
     electrons    :      0.22s CPU      0.31s WALL (       1 calls)
     forces       :      0.00s CPU      0.00s WALL (       1 calls)
     stress       :      0.03s CPU      0.03s WALL (       1 calls)

     Called by init_run:
     wfcinit      :      0.05s CPU      0.07s WALL (       1 calls)
     potinit      :      0.00s CPU      0.00s WALL (       1 calls)
     hinit0       :      0.01s CPU      0.01s WALL (       1 calls)

     Called by electrons:
     c_bands      :      0.19s CPU      0.28s WALL (       4 calls)
     sum_band     :      0.03s CPU      0.03s WALL (       4 calls)
     v_of_rho     :      0.00s CPU      0.00s WALL (       4 calls)
     mix_rho      :      0.00s CPU      0.00s WALL (       4 calls)

     Called by c_bands:
     init_us_2    :      0.01s CPU      0.01s WALL (     484 calls)
     cegterg      :      0.19s CPU      0.28s WALL (     176 calls)

     Called by *egterg:
     cdiaghg      :      0.07s CPU      0.17s WALL (     603 calls)
     h_psi        :      0.15s CPU      0.15s WALL (     691 calls)
     g_psi        :      0.00s CPU      0.00s WALL (     471 calls)

     Called by h_psi:
     h_psi:calbec :      0.00s CPU      0.00s WALL (     691 calls)
     vloc_psi     :      0.14s CPU      0.15s WALL (     691 calls)
                                        0.00s GPU  (     691 calls)
     add_vuspsi   :      0.00s CPU      0.00s WALL (     691 calls)

     General routines
     calbec       :      0.01s CPU      0.01s WALL (    1439 calls)
     fft          :      0.00s CPU      0.00s WALL (      20 calls)
     ffts         :      0.00s CPU      0.00s WALL (       4 calls)
     fftw         :      0.15s CPU      0.15s WALL (    7342 calls)

     Parallel routines

     PWSCF        :      0.32s CPU      0.43s WALL


   This run was terminated on:  23:31: 5  31Jan2026            

=------------------------------------------------------------------------------=
   JOB DONE.
=------------------------------------------------------------------------------=
