
     Program PWSCF v.7.5 starts on 26Jan2026 at 14: 5:35 

     This program is part of the open-source Quantum ESPRESSO suite
     for quantum simulation of materials; please cite
         "P. Giannozzi et al., J. Phys.:Condens. Matter 21 395502 (2009);
         "P. Giannozzi et al., J. Phys.:Condens. Matter 29 465901 (2017);
         "P. Giannozzi et al., J. Chem. Phys. 152 154105 (2020);
          URL http://www.quantum-espresso.org", 
     in publications or presentations arising from this work. More details at
     http://www.quantum-espresso.org/quote

     Parallel version (MPI), running on     1 processors

     MPI processes distributed on     1 nodes
     0 MiB available memory on the printing compute node when the environment starts

     Waiting for input...
     Reading input from standard input
     Message from routine read_cards :
     DEPRECATED: no units specified in ATOMIC_POSITIONS card
     Message from routine read_cards :
     ATOMIC_POSITIONS: units set to alat

     Current dimensions of program PWSCF are:
     Max number of different atomic species (ntypx) = 10
     Max number of k-points (npk) =  40000
     Max angular momentum in pseudopotentials (lmaxx) =  4
     file Li.pbe-mt_fhi.UPF: wavefunction(s)  2p 4f renormalized

     IMPORTANT: XC functional enforced from input :
     Exchange-correlation= PZ
                           (   1   1   0   0   0   0   0)
     Any further DFT definition will be discarded
     Please, verify this is what you really want


     Subspace diagonalization in iterative solution of the eigenvalue problem:
     a serial algorithm will be used


     G-vector sticks info
     --------------------
     sticks:   dense  smooth     PW     G-vecs:    dense   smooth      PW
     Sum         173     173     63                 1505     1505     321

     Using Slab Decomposition



     bravais-lattice index     =            3
     lattice parameter (alat)  =       6.3500  a.u.
     unit-cell volume          =     128.0239 (a.u.)^3
     number of atoms/cell      =            1
     number of atomic types    =            1
     number of electrons       =         1.00
     number of Kohn-Sham states=            5
     kinetic-energy cutoff     =      20.0000  Ry
     charge density cutoff     =      80.0000  Ry
     scf convergence threshold =      1.0E-08
     mixing beta               =       0.7000
     number of iterations used =            8  plain     mixing
     Exchange-correlation= PZ
                           (   1   1   0   0   0   0   0)

     celldm(1)=   6.350000  celldm(2)=   0.000000  celldm(3)=   0.000000
     celldm(4)=   0.000000  celldm(5)=   0.000000  celldm(6)=   0.000000

     crystal axes: (cart. coord. in units of alat)
               a(1) = (   0.500000   0.500000   0.500000 )  
               a(2) = (  -0.500000   0.500000   0.500000 )  
               a(3) = (  -0.500000  -0.500000   0.500000 )  

     reciprocal axes: (cart. coord. in units 2 pi/alat)
               b(1) = (  1.000000  0.000000  1.000000 )  
               b(2) = ( -1.000000  1.000000  0.000000 )  
               b(3) = (  0.000000 -1.000000  1.000000 )  


     PseudoPot. # 1 for Li read from file:
     ./pseudopot/Li.pbe-mt_fhi.UPF
     MD5 check sum: 3419f5616d131090147e867976aae79b
     Pseudo is Norm-conserving + core correction, Zval =  1.0
     Generated using FHI98PP, converted with fhi2upf.x v.5.0.2
     Using radial grid of  433 points,  3 beta functions with: 
                l(1) =   0
                l(2) =   1
                l(3) =   3

     atomic species   valence    mass     pseudopotential
     Li                1.00     6.94000     Li( 1.00)

     48 Sym. Ops., with inversion, found



   Cartesian axes

     site n.     atom                  positions (alat units)
         1        Li     tau(   1) = (   0.0000000   0.0000000   0.0000000  )

     number of k points=    44  Methfessel-Paxton smearing, width (Ry)=  0.0100
                       cart. coord. in units 2pi/alat
        k(    1) = (   0.0000000   0.0000000   0.1000000), wk =   0.0120000
        k(    2) = (   0.0000000  -0.1000000   0.2000000), wk =   0.0480000
        k(    3) = (   0.0000000  -0.2000000   0.3000000), wk =   0.0480000
        k(    4) = (   0.0000000  -0.3000000   0.4000000), wk =   0.0480000
        k(    5) = (   0.0000000  -0.4000000   0.5000000), wk =   0.0480000
        k(    6) = (  -0.1000000   0.1000000   0.1000000), wk =   0.0160000
        k(    7) = (  -0.1000000  -0.1000000   0.3000000), wk =   0.0480000
        k(    8) = (  -0.1000000  -0.2000000   0.4000000), wk =   0.0960000
        k(    9) = (  -0.1000000  -0.3000000   0.5000000), wk =   0.0960000
        k(   10) = (  -0.1000000   0.6000000  -0.4000000), wk =   0.0480000
        k(   11) = (  -0.2000000   0.2000000   0.1000000), wk =   0.0480000
        k(   12) = (  -0.2000000  -0.2000000   0.5000000), wk =   0.0480000
        k(   13) = (  -0.2000000   0.7000000  -0.4000000), wk =   0.0960000
        k(   14) = (  -0.3000000   0.3000000   0.1000000), wk =   0.0480000
        k(   15) = (  -0.3000000   0.2000000   0.2000000), wk =   0.0480000
        k(   16) = (  -0.3000000   0.7000000  -0.3000000), wk =   0.0160000
        k(   17) = (  -0.4000000   0.4000000   0.1000000), wk =   0.0480000
        k(   18) = (  -0.4000000   0.3000000   0.2000000), wk =   0.0960000
        k(   19) = (   0.5000000  -0.5000000   0.1000000), wk =   0.0240000
        k(   20) = (   0.5000000  -0.6000000   0.2000000), wk =   0.0960000
        k(   21) = (   0.5000000  -0.7000000   0.3000000), wk =   0.0480000
        k(   22) = (   0.4000000  -0.6000000   0.3000000), wk =   0.0480000
        k(   23) = (   0.0000000   0.0000000   0.3000000), wk =   0.0120000
        k(   24) = (   0.0000000  -0.1000000   0.4000000), wk =   0.0480000
        k(   25) = (   0.0000000  -0.2000000   0.5000000), wk =   0.0480000
        k(   26) = (   0.0000000  -0.3000000   0.6000000), wk =   0.0480000
        k(   27) = (  -0.1000000  -0.1000000   0.5000000), wk =   0.0480000
        k(   28) = (  -0.1000000  -0.2000000   0.6000000), wk =   0.0960000
        k(   29) = (  -0.1000000   0.7000000  -0.3000000), wk =   0.0480000
        k(   30) = (  -0.2000000   0.8000000  -0.3000000), wk =   0.0480000
        k(   31) = (  -0.3000000   0.3000000   0.3000000), wk =   0.0160000
        k(   32) = (   0.6000000  -0.6000000   0.3000000), wk =   0.0480000
        k(   33) = (   0.5000000  -0.5000000   0.3000000), wk =   0.0240000
        k(   34) = (   0.5000000  -0.6000000   0.4000000), wk =   0.0480000
        k(   35) = (   0.0000000   0.0000000   0.5000000), wk =   0.0120000
        k(   36) = (   0.0000000  -0.1000000   0.6000000), wk =   0.0480000
        k(   37) = (   0.0000000  -0.2000000   0.7000000), wk =   0.0480000
        k(   38) = (  -0.1000000  -0.1000000   0.7000000), wk =   0.0480000
        k(   39) = (  -0.1000000   0.8000000  -0.2000000), wk =   0.0480000
        k(   40) = (   0.5000000  -0.5000000   0.5000000), wk =   0.0040000
        k(   41) = (   0.0000000   0.0000000   0.7000000), wk =   0.0120000
        k(   42) = (   0.0000000  -0.1000000   0.8000000), wk =   0.0480000
        k(   43) = (  -0.1000000   0.9000000  -0.1000000), wk =   0.0160000
        k(   44) = (   0.0000000   0.0000000   0.9000000), wk =   0.0120000

     Dense  grid:     1505 G-vectors     FFT dimensions: (  15,  15,  15)

     Estimated max dynamical RAM per process >       1.90 MB

     Initial potential from superposition of free atoms

     starting charge       0.9960, renormalised to       1.0000
     Starting wfcs are   16 randomized atomic wfcs

     total cpu time spent up to now is        0.1 secs

     Self-consistent Calculation

     iteration #  1     ecut=    20.00 Ry     beta= 0.70
     Davidson diagonalization with overlap
     ethr =  1.00E-02,  avg # of iterations =  4.4

     Threshold (ethr) on eigenvalues was too large:
     Diagonalizing with lowered threshold

     Davidson diagonalization with overlap
     ethr =  2.04E-05,  avg # of iterations =  3.7

     total cpu time spent up to now is        0.2 secs

     total energy              =      -0.68952947 Ry
     estimated scf accuracy    <       0.00020347 Ry

     iteration #  2     ecut=    20.00 Ry     beta= 0.70
     Davidson diagonalization with overlap
     ethr =  2.03E-05,  avg # of iterations =  1.0

     total cpu time spent up to now is        0.2 secs

     total energy              =      -0.68952682 Ry
     estimated scf accuracy    <       0.00001765 Ry

     iteration #  3     ecut=    20.00 Ry     beta= 0.70
     Davidson diagonalization with overlap
     ethr =  1.77E-06,  avg # of iterations =  1.3

     total cpu time spent up to now is        0.3 secs

     End of self-consistent calculation

          k = 0.0000 0.0000 0.1000 (   197 PWs)   bands (ev):

    -3.0100  15.1985  15.1985  15.4993  19.4877

          k = 0.0000-0.1000 0.2000 (   192 PWs)   bands (ev):

    -2.6165  12.9022  13.8135  14.9421  17.7353

          k = 0.0000-0.2000 0.3000 (   192 PWs)   bands (ev):

    -1.8318   9.6468  12.4549  14.0924  16.9485

          k = 0.0000-0.3000 0.4000 (   190 PWs)   bands (ev):

    -0.6860   6.6662  11.4909  13.3471  15.9076

          k = 0.0000-0.4000 0.5000 (   190 PWs)   bands (ev):

     0.5836   4.4509  10.9988  12.9385  15.3843

          k =-0.1000 0.1000 0.1000 (   189 PWs)   bands (ev):

    -2.8137  14.1766  14.5422  14.5422  18.7573

          k =-0.1000-0.1000 0.3000 (   189 PWs)   bands (ev):

    -2.0243  11.0752  11.6934  14.2267  16.8166

          k =-0.1000-0.2000 0.4000 (   192 PWs)   bands (ev):

    -1.0444   8.1428  10.4222  13.4156  16.8263

          k =-0.1000-0.3000 0.5000 (   191 PWs)   bands (ev):

     0.2515   5.4927   9.7150  12.8099  16.9038

          k =-0.1000 0.6000-0.4000 (   195 PWs)   bands (ev):

     1.1970   4.0830   9.4786  12.5943  16.8444

          k =-0.2000 0.2000 0.1000 (   194 PWs)   bands (ev):

    -2.2247  11.3196  12.9549  13.2845  18.2225

          k =-0.2000-0.2000 0.5000 (   192 PWs)   bands (ev):

     0.1257   6.3787   8.5358  12.9149  17.0767

          k =-0.2000 0.7000-0.4000 (   194 PWs)   bands (ev):

     1.5302   4.3909   7.7991  12.6094  17.6272

          k =-0.3000 0.3000 0.1000 (   190 PWs)   bands (ev):

    -1.2512   8.1055  11.9207  12.1840  17.4726

          k =-0.3000 0.2000 0.2000 (   187 PWs)   bands (ev):

    -1.4395   9.4523  10.5278  12.0425  19.1143

          k =-0.3000 0.7000-0.3000 (   197 PWs)   bands (ev):

     3.0222   3.0222   7.0548  12.5460  18.9598

          k =-0.4000 0.4000 0.1000 (   188 PWs)   bands (ev):

     0.0274   5.4171  11.2706  11.4811  16.8693

          k =-0.4000 0.3000 0.2000 (   190 PWs)   bands (ev):

    -0.2789   6.7238   9.3569  11.3154  19.2231

          k = 0.5000-0.5000 0.1000 (   188 PWs)   bands (ev):

     0.9371   4.0302  11.0499  11.2419  16.6518

          k = 0.5000-0.6000 0.2000 (   190 PWs)   bands (ev):

     1.0646   4.4758   8.8528  10.9422  19.0700

          k = 0.5000-0.7000 0.3000 (   187 PWs)   bands (ev):

     1.0600   5.1107   7.5949  10.8871  20.6611

          k = 0.4000-0.6000 0.3000 (   197 PWs)   bands (ev):

     2.2464   3.7159   7.1108  10.7414  20.7780

          k = 0.0000 0.0000 0.3000 (   197 PWs)   bands (ev):

    -2.2182  12.2888  12.2888  14.4405  15.2356

          k = 0.0000-0.1000 0.4000 (   192 PWs)   bands (ev):

    -1.4230   9.7622  10.8729  13.8282  14.7364

          k = 0.0000-0.2000 0.5000 (   190 PWs)   bands (ev):

    -0.2552   6.8877   9.8833  13.1752  15.5742

          k = 0.0000-0.3000 0.6000 (   193 PWs)   bands (ev):

     1.0731   4.6477   9.3807  12.8260  16.6575

          k =-0.1000-0.1000 0.5000 (   195 PWs)   bands (ev):

    -0.4251   8.0730   9.1571  13.8910  13.9038

          k =-0.1000-0.2000 0.6000 (   196 PWs)   bands (ev):

     0.9169   5.7295   8.2778  13.3760  14.9291

          k =-0.1000 0.7000-0.3000 (   200 PWs)   bands (ev):

     1.9743   4.2678   8.0206  13.1938  15.8809

          k =-0.2000 0.8000-0.3000 (   201 PWs)   bands (ev):

     2.3972   4.3006   7.1402  14.0173  15.1152

          k =-0.3000 0.3000 0.3000 (   186 PWs)   bands (ev):

    -0.4599   8.2139   8.2139  10.5913  20.8181

          k = 0.6000-0.6000 0.3000 (   190 PWs)   bands (ev):

     0.8803   5.6153   7.4561  10.0678  21.9491

          k = 0.5000-0.5000 0.3000 (   194 PWs)   bands (ev):

     1.9870   4.0617   7.2019   9.9091  21.8483

          k = 0.5000-0.6000 0.4000 (   192 PWs)   bands (ev):

     2.3869   4.3398   5.9890   9.6905  23.0937

          k = 0.0000 0.0000 0.5000 (   201 PWs)   bands (ev):

    -0.6068   9.4326   9.4326  12.0427  13.7541

          k = 0.0000-0.1000 0.6000 (   197 PWs)   bands (ev):

     0.6004   7.3214   8.4335  11.8144  13.8029

          k = 0.0000-0.2000 0.7000 (   200 PWs)   bands (ev):

     2.0371   5.1018   7.9269  12.0554  14.7349

          k =-0.1000-0.1000 0.7000 (   197 PWs)   bands (ev):

     1.9981   6.0185   7.3228  11.8440  13.7197

          k =-0.1000 0.8000-0.2000 (   200 PWs)   bands (ev):

     3.2566   4.6097   6.9630  12.3494  14.0970

          k = 0.5000-0.5000 0.5000 (   180 PWs)   bands (ev):

     4.0820   4.0820   4.0820   9.3913  25.2749

          k = 0.0000 0.0000 0.7000 (   196 PWs)   bands (ev):

     1.8631   7.4297   7.4297   9.9135  13.2815

          k = 0.0000-0.1000 0.8000 (   200 PWs)   bands (ev):

     3.4310   5.8527   6.9212  10.2546  12.5079

          k =-0.1000 0.9000-0.1000 (   197 PWs)   bands (ev):

     4.9827   4.9827   6.4494  10.8022  10.8022

          k = 0.0000 0.0000 0.9000 (   196 PWs)   bands (ev):

     5.1100   6.4126   6.4126   8.8487  10.0727

     the Fermi energy is     0.6292 ev

!    total energy              =      -0.68952687 Ry
     estimated scf accuracy    <          2.0E-10 Ry
     smearing contrib. (-TS)   =      -0.00007761 Ry
     internal energy E=F+TS    =      -0.68944926 Ry

     The total energy is F=E-TS. E is the sum of the following terms:
     one-electron contribution =       0.43365743 Ry
     hartree contribution      =       0.00110872 Ry
     xc contribution           =      -0.55110774 Ry
     ewald contribution        =      -0.57310767 Ry

     convergence has been achieved in   3 iterations

     Forces acting on atoms (cartesian axes, Ry/au):

     atom    1 type  1   force =     0.00000000    0.00000000    0.00000000

     Total force =     0.000000     Total SCF correction =     0.000000


     Computing stress (Cartesian axis) and pressure

          total   stress  (Ry/bohr**3)                   (kbar)     P=       -2.81
  -0.00001910  -0.00000000   0.00000000           -2.81       -0.00        0.00
  -0.00000000  -0.00001910  -0.00000000           -0.00       -2.81       -0.00
   0.00000000  -0.00000000  -0.00001910            0.00       -0.00       -2.81


     Writing all to output data dir ./QE-outdir/li.save/ :
     XML data file, charge density, pseudopotentials, collected wavefunctions

     init_run     :      0.04s CPU      0.06s WALL (       1 calls)
     electrons    :      0.13s CPU      0.21s WALL (       1 calls)
     forces       :      0.00s CPU      0.00s WALL (       1 calls)
     stress       :      0.02s CPU      0.02s WALL (       1 calls)

     Called by init_run:
     wfcinit      :      0.03s CPU      0.04s WALL (       1 calls)
     potinit      :      0.00s CPU      0.00s WALL (       1 calls)
     hinit0       :      0.01s CPU      0.01s WALL (       1 calls)

     Called by electrons:
     c_bands      :      0.11s CPU      0.20s WALL (       4 calls)
     sum_band     :      0.01s CPU      0.01s WALL (       4 calls)
     v_of_rho     :      0.00s CPU      0.00s WALL (       4 calls)
     mix_rho      :      0.00s CPU      0.00s WALL (       4 calls)

     Called by c_bands:
     init_us_2    :      0.01s CPU      0.01s WALL (     484 calls)
     cegterg      :      0.11s CPU      0.19s WALL (     176 calls)

     Called by *egterg:
     cdiaghg      :      0.07s CPU      0.16s WALL (     590 calls)
     h_psi        :      0.05s CPU      0.06s WALL (     678 calls)
     g_psi        :      0.00s CPU      0.00s WALL (     458 calls)

     Called by h_psi:
     h_psi:calbec :      0.00s CPU      0.00s WALL (     678 calls)
     vloc_psi     :      0.05s CPU      0.05s WALL (     678 calls)
                                        0.00s GPU  (     678 calls)
     add_vuspsi   :      0.00s CPU      0.00s WALL (     678 calls)

     General routines
     calbec       :      0.01s CPU      0.01s WALL (    1426 calls)
     fft          :      0.00s CPU      0.00s WALL (      20 calls)
     ffts         :      0.00s CPU      0.00s WALL (       4 calls)
     fftw         :      0.04s CPU      0.04s WALL (    7230 calls)

     Parallel routines

     PWSCF        :      0.20s CPU      0.30s WALL


   This run was terminated on:  14: 5:35  26Jan2026            

=------------------------------------------------------------------------------=
   JOB DONE.
=------------------------------------------------------------------------------=
