
     Program PWSCF v.7.5 starts on 26Jan2026 at 14: 5:39 

     This program is part of the open-source Quantum ESPRESSO suite
     for quantum simulation of materials; please cite
         "P. Giannozzi et al., J. Phys.:Condens. Matter 21 395502 (2009);
         "P. Giannozzi et al., J. Phys.:Condens. Matter 29 465901 (2017);
         "P. Giannozzi et al., J. Chem. Phys. 152 154105 (2020);
          URL http://www.quantum-espresso.org", 
     in publications or presentations arising from this work. More details at
     http://www.quantum-espresso.org/quote

     Parallel version (MPI), running on     1 processors

     MPI processes distributed on     1 nodes
     0 MiB available memory on the printing compute node when the environment starts

     Waiting for input...
     Reading input from standard input
     Message from routine read_cards :
     DEPRECATED: no units specified in ATOMIC_POSITIONS card
     Message from routine read_cards :
     ATOMIC_POSITIONS: units set to alat

     Current dimensions of program PWSCF are:
     Max number of different atomic species (ntypx) = 10
     Max number of k-points (npk) =  40000
     Max angular momentum in pseudopotentials (lmaxx) =  4
     file Li.pbe-mt_fhi.UPF: wavefunction(s)  2p 4f renormalized

     IMPORTANT: XC functional enforced from input :
     Exchange-correlation= PZ
                           (   1   1   0   0   0   0   0)
     Any further DFT definition will be discarded
     Please, verify this is what you really want


     Subspace diagonalization in iterative solution of the eigenvalue problem:
     a serial algorithm will be used


     G-vector sticks info
     --------------------
     sticks:   dense  smooth     PW     G-vecs:    dense   smooth      PW
     Sum         213     213     69                 1961     1961     381

     Using Slab Decomposition



     bravais-lattice index     =            3
     lattice parameter (alat)  =       6.8500  a.u.
     unit-cell volume          =     160.7096 (a.u.)^3
     number of atoms/cell      =            1
     number of atomic types    =            1
     number of electrons       =         1.00
     number of Kohn-Sham states=            5
     kinetic-energy cutoff     =      20.0000  Ry
     charge density cutoff     =      80.0000  Ry
     scf convergence threshold =      1.0E-08
     mixing beta               =       0.7000
     number of iterations used =            8  plain     mixing
     Exchange-correlation= PZ
                           (   1   1   0   0   0   0   0)

     celldm(1)=   6.850000  celldm(2)=   0.000000  celldm(3)=   0.000000
     celldm(4)=   0.000000  celldm(5)=   0.000000  celldm(6)=   0.000000

     crystal axes: (cart. coord. in units of alat)
               a(1) = (   0.500000   0.500000   0.500000 )  
               a(2) = (  -0.500000   0.500000   0.500000 )  
               a(3) = (  -0.500000  -0.500000   0.500000 )  

     reciprocal axes: (cart. coord. in units 2 pi/alat)
               b(1) = (  1.000000  0.000000  1.000000 )  
               b(2) = ( -1.000000  1.000000  0.000000 )  
               b(3) = (  0.000000 -1.000000  1.000000 )  


     PseudoPot. # 1 for Li read from file:
     ./pseudopot/Li.pbe-mt_fhi.UPF
     MD5 check sum: 3419f5616d131090147e867976aae79b
     Pseudo is Norm-conserving + core correction, Zval =  1.0
     Generated using FHI98PP, converted with fhi2upf.x v.5.0.2
     Using radial grid of  433 points,  3 beta functions with: 
                l(1) =   0
                l(2) =   1
                l(3) =   3

     atomic species   valence    mass     pseudopotential
     Li                1.00     6.94000     Li( 1.00)

     48 Sym. Ops., with inversion, found



   Cartesian axes

     site n.     atom                  positions (alat units)
         1        Li     tau(   1) = (   0.0000000   0.0000000   0.0000000  )

     number of k points=    44  Methfessel-Paxton smearing, width (Ry)=  0.0100
                       cart. coord. in units 2pi/alat
        k(    1) = (   0.0000000   0.0000000   0.1000000), wk =   0.0120000
        k(    2) = (   0.0000000  -0.1000000   0.2000000), wk =   0.0480000
        k(    3) = (   0.0000000  -0.2000000   0.3000000), wk =   0.0480000
        k(    4) = (   0.0000000  -0.3000000   0.4000000), wk =   0.0480000
        k(    5) = (   0.0000000  -0.4000000   0.5000000), wk =   0.0480000
        k(    6) = (  -0.1000000   0.1000000   0.1000000), wk =   0.0160000
        k(    7) = (  -0.1000000  -0.1000000   0.3000000), wk =   0.0480000
        k(    8) = (  -0.1000000  -0.2000000   0.4000000), wk =   0.0960000
        k(    9) = (  -0.1000000  -0.3000000   0.5000000), wk =   0.0960000
        k(   10) = (  -0.1000000   0.6000000  -0.4000000), wk =   0.0480000
        k(   11) = (  -0.2000000   0.2000000   0.1000000), wk =   0.0480000
        k(   12) = (  -0.2000000  -0.2000000   0.5000000), wk =   0.0480000
        k(   13) = (  -0.2000000   0.7000000  -0.4000000), wk =   0.0960000
        k(   14) = (  -0.3000000   0.3000000   0.1000000), wk =   0.0480000
        k(   15) = (  -0.3000000   0.2000000   0.2000000), wk =   0.0480000
        k(   16) = (  -0.3000000   0.7000000  -0.3000000), wk =   0.0160000
        k(   17) = (  -0.4000000   0.4000000   0.1000000), wk =   0.0480000
        k(   18) = (  -0.4000000   0.3000000   0.2000000), wk =   0.0960000
        k(   19) = (   0.5000000  -0.5000000   0.1000000), wk =   0.0240000
        k(   20) = (   0.5000000  -0.6000000   0.2000000), wk =   0.0960000
        k(   21) = (   0.5000000  -0.7000000   0.3000000), wk =   0.0480000
        k(   22) = (   0.4000000  -0.6000000   0.3000000), wk =   0.0480000
        k(   23) = (   0.0000000   0.0000000   0.3000000), wk =   0.0120000
        k(   24) = (   0.0000000  -0.1000000   0.4000000), wk =   0.0480000
        k(   25) = (   0.0000000  -0.2000000   0.5000000), wk =   0.0480000
        k(   26) = (   0.0000000  -0.3000000   0.6000000), wk =   0.0480000
        k(   27) = (  -0.1000000  -0.1000000   0.5000000), wk =   0.0480000
        k(   28) = (  -0.1000000  -0.2000000   0.6000000), wk =   0.0960000
        k(   29) = (  -0.1000000   0.7000000  -0.3000000), wk =   0.0480000
        k(   30) = (  -0.2000000   0.8000000  -0.3000000), wk =   0.0480000
        k(   31) = (  -0.3000000   0.3000000   0.3000000), wk =   0.0160000
        k(   32) = (   0.6000000  -0.6000000   0.3000000), wk =   0.0480000
        k(   33) = (   0.5000000  -0.5000000   0.3000000), wk =   0.0240000
        k(   34) = (   0.5000000  -0.6000000   0.4000000), wk =   0.0480000
        k(   35) = (   0.0000000   0.0000000   0.5000000), wk =   0.0120000
        k(   36) = (   0.0000000  -0.1000000   0.6000000), wk =   0.0480000
        k(   37) = (   0.0000000  -0.2000000   0.7000000), wk =   0.0480000
        k(   38) = (  -0.1000000  -0.1000000   0.7000000), wk =   0.0480000
        k(   39) = (  -0.1000000   0.8000000  -0.2000000), wk =   0.0480000
        k(   40) = (   0.5000000  -0.5000000   0.5000000), wk =   0.0040000
        k(   41) = (   0.0000000   0.0000000   0.7000000), wk =   0.0120000
        k(   42) = (   0.0000000  -0.1000000   0.8000000), wk =   0.0480000
        k(   43) = (  -0.1000000   0.9000000  -0.1000000), wk =   0.0160000
        k(   44) = (   0.0000000   0.0000000   0.9000000), wk =   0.0120000

     Dense  grid:     1961 G-vectors     FFT dimensions: (  18,  18,  18)

     Estimated max dynamical RAM per process >       2.46 MB

     Initial potential from superposition of free atoms

     starting charge       0.9960, renormalised to       1.0000
     Starting wfcs are   16 randomized atomic wfcs

     total cpu time spent up to now is        0.1 secs

     Self-consistent Calculation

     iteration #  1     ecut=    20.00 Ry     beta= 0.70
     Davidson diagonalization with overlap
     ethr =  1.00E-02,  avg # of iterations =  5.0

     Threshold (ethr) on eigenvalues was too large:
     Diagonalizing with lowered threshold

     Davidson diagonalization with overlap
     ethr =  1.41E-05,  avg # of iterations =  3.9

     total cpu time spent up to now is        0.3 secs

     total energy              =      -0.68605829 Ry
     estimated scf accuracy    <       0.00014036 Ry

     iteration #  2     ecut=    20.00 Ry     beta= 0.70
     Davidson diagonalization with overlap
     ethr =  1.40E-05,  avg # of iterations =  1.0

     total cpu time spent up to now is        0.4 secs

     total energy              =      -0.68605735 Ry
     estimated scf accuracy    <       0.00001244 Ry

     iteration #  3     ecut=    20.00 Ry     beta= 0.70
     Davidson diagonalization with overlap
     ethr =  1.24E-06,  avg # of iterations =  1.3

     total cpu time spent up to now is        0.4 secs

     End of self-consistent calculation

          k = 0.0000 0.0000 0.1000 (   237 PWs)   bands (ev):

    -3.2704  12.4534  12.4534  12.6785  16.4194

          k = 0.0000-0.1000 0.2000 (   233 PWs)   bands (ev):

    -2.9107  10.5367  11.3081  12.2321  14.8373

          k = 0.0000-0.2000 0.3000 (   242 PWs)   bands (ev):

    -2.1943   7.7535  10.1635  11.5461  14.1844

          k = 0.0000-0.3000 0.4000 (   248 PWs)   bands (ev):

    -1.1441   5.1534   9.3447  10.9320  13.2912

          k = 0.0000-0.4000 0.5000 (   244 PWs)   bands (ev):

     0.0559   3.1529   8.9259  10.5921  12.8420

          k =-0.1000 0.1000 0.1000 (   234 PWs)   bands (ev):

    -3.0908  11.5544  11.9435  11.9436  15.6932

          k =-0.1000-0.1000 0.3000 (   242 PWs)   bands (ev):

    -2.3710   9.0543   9.4457  11.6429  14.0485

          k =-0.1000-0.2000 0.4000 (   240 PWs)   bands (ev):

    -1.4783   6.4973   8.3745  10.9856  14.0175

          k =-0.1000-0.3000 0.5000 (   244 PWs)   bands (ev):

    -0.2872   4.1538   7.7723  10.4843  14.0209

          k =-0.1000 0.6000-0.4000 (   244 PWs)   bands (ev):

     0.6268   2.8453   7.5704  10.3048  13.9565

          k =-0.2000 0.2000 0.1000 (   243 PWs)   bands (ev):

    -2.5525   9.2039  10.5300  10.9242  15.1963

          k =-0.2000-0.2000 0.5000 (   240 PWs)   bands (ev):

    -0.4167   5.0630   6.6216  10.5683  14.2633

          k =-0.2000 0.7000-0.4000 (   242 PWs)   bands (ev):

     0.8719   3.2946   5.9694  10.3087  14.6846

          k =-0.3000 0.3000 0.1000 (   243 PWs)   bands (ev):

    -1.6633   6.4300   9.6338  10.0078  14.5719

          k =-0.3000 0.2000 0.2000 (   250 PWs)   bands (ev):

    -1.8368   7.6881   8.4482   9.7618  15.9881

          k =-0.3000 0.7000-0.3000 (   237 PWs)   bands (ev):

     2.1910   2.1910   5.2175  10.2482  15.8814

          k =-0.4000 0.4000 0.1000 (   247 PWs)   bands (ev):

    -0.4826   4.0562   9.0732   9.4160  14.0677

          k =-0.4000 0.3000 0.2000 (   248 PWs)   bands (ev):

    -0.7790   5.2942   7.4721   9.1025  15.9798

          k = 0.5000-0.5000 0.1000 (   250 PWs)   bands (ev):

     0.4040   2.7655   8.8827   9.2140  13.8849

          k = 0.5000-0.6000 0.2000 (   246 PWs)   bands (ev):

     0.4703   3.2731   7.0518   8.7649  15.8589

          k = 0.5000-0.7000 0.3000 (   245 PWs)   bands (ev):

     0.4338   3.9805   5.8463   8.6876  17.1133

          k = 0.4000-0.6000 0.3000 (   242 PWs)   bands (ev):

     1.5270   2.7350   5.4114   8.5466  17.2793

          k = 0.0000 0.0000 0.3000 (   241 PWs)   bands (ev):

    -2.5486  10.0427  10.0427  11.6994  12.7652

          k = 0.0000-0.1000 0.4000 (   243 PWs)   bands (ev):

    -1.8266   7.8859   8.8439  11.2311  12.2299

          k = 0.0000-0.2000 0.5000 (   242 PWs)   bands (ev):

    -0.7639   5.3846   8.0015  10.6775  12.9186

          k = 0.0000-0.3000 0.6000 (   244 PWs)   bands (ev):

     0.4759   3.3733   7.5727  10.3720  13.8174

          k =-0.1000-0.1000 0.5000 (   238 PWs)   bands (ev):

    -0.9246   6.5001   7.2853  11.2173  11.5711

          k =-0.1000-0.2000 0.6000 (   241 PWs)   bands (ev):

     0.2936   4.4365   6.5193  10.8690  12.3692

          k =-0.1000 0.7000-0.3000 (   239 PWs)   bands (ev):

     1.2925   3.0910   6.2999  10.7115  13.1740

          k =-0.2000 0.8000-0.3000 (   239 PWs)   bands (ev):

     1.6257   3.2835   5.3871  11.3910  12.5966

          k =-0.3000 0.3000 0.3000 (   240 PWs)   bands (ev):

    -0.9464   6.6356   6.6356   8.2552  17.3276

          k = 0.6000-0.6000 0.3000 (   243 PWs)   bands (ev):

     0.2700   4.3686   5.9894   7.7464  18.0414

          k = 0.5000-0.5000 0.3000 (   244 PWs)   bands (ev):

     1.3047   2.9566   5.7724   7.5942  18.2224

          k = 0.5000-0.6000 0.4000 (   244 PWs)   bands (ev):

     1.6212   3.3213   4.6709   7.3425  19.2214

          k = 0.0000 0.0000 0.5000 (   241 PWs)   bands (ev):

    -1.0933   7.6225   7.6225  10.0216  10.9637

          k = 0.0000-0.1000 0.6000 (   241 PWs)   bands (ev):

    -0.0087   5.8078   6.7704   9.7378  11.0377

          k = 0.0000-0.2000 0.7000 (   242 PWs)   bands (ev):

     1.3030   3.8405   6.3378   9.7614  12.0180

          k =-0.1000-0.1000 0.7000 (   244 PWs)   bands (ev):

     1.2404   4.7438   5.7229   9.8069  10.9534

          k =-0.1000 0.8000-0.2000 (   244 PWs)   bands (ev):

     2.3887   3.4863   5.3904  10.1390  11.7265

          k = 0.5000-0.5000 0.5000 (   240 PWs)   bands (ev):

     3.1005   3.1005   3.1005   6.9695  21.0694

          k = 0.0000 0.0000 0.7000 (   245 PWs)   bands (ev):

     1.1066   5.9137   5.9137   8.1921  10.5116

          k = 0.0000-0.1000 0.8000 (   241 PWs)   bands (ev):

     2.5002   4.5509   5.4796   8.4268  10.2206

          k =-0.1000 0.9000-0.1000 (   242 PWs)   bands (ev):

     3.8571   3.8571   4.9998   8.9136   8.9136

          k = 0.0000 0.0000 0.9000 (   236 PWs)   bands (ev):

     3.9441   5.0445   5.0445   7.2772   8.2785

     the Fermi energy is     0.0690 ev

!    total energy              =      -0.68605741 Ry
     estimated scf accuracy    <          8.1E-10 Ry
     smearing contrib. (-TS)   =      -0.00001387 Ry
     internal energy E=F+TS    =      -0.68604354 Ry

     The total energy is F=E-TS. E is the sum of the following terms:
     one-electron contribution =       0.36655264 Ry
     hartree contribution      =       0.00073052 Ry
     xc contribution           =      -0.52205171 Ry
     ewald contribution        =      -0.53127499 Ry

     convergence has been achieved in   3 iterations

     Forces acting on atoms (cartesian axes, Ry/au):

     atom    1 type  1   force =     0.00000000    0.00000000    0.00000000

     Total force =     0.000000     Total SCF correction =     0.000000


     Computing stress (Cartesian axis) and pressure

          total   stress  (Ry/bohr**3)                   (kbar)     P=      -24.91
  -0.00016932   0.00000000  -0.00000000          -24.91        0.00       -0.00
   0.00000000  -0.00016932   0.00000000            0.00      -24.91        0.00
   0.00000000   0.00000000  -0.00016932            0.00        0.00      -24.91


     Writing all to output data dir ./QE-outdir/li.save/ :
     XML data file, charge density, pseudopotentials, collected wavefunctions

     init_run     :      0.06s CPU      0.08s WALL (       1 calls)
     electrons    :      0.23s CPU      0.32s WALL (       1 calls)
     forces       :      0.00s CPU      0.00s WALL (       1 calls)
     stress       :      0.03s CPU      0.03s WALL (       1 calls)

     Called by init_run:
     wfcinit      :      0.05s CPU      0.07s WALL (       1 calls)
     potinit      :      0.00s CPU      0.00s WALL (       1 calls)
     hinit0       :      0.01s CPU      0.01s WALL (       1 calls)

     Called by electrons:
     c_bands      :      0.20s CPU      0.29s WALL (       4 calls)
     sum_band     :      0.03s CPU      0.03s WALL (       4 calls)
     v_of_rho     :      0.00s CPU      0.00s WALL (       4 calls)
     mix_rho      :      0.00s CPU      0.00s WALL (       4 calls)

     Called by c_bands:
     init_us_2    :      0.01s CPU      0.01s WALL (     484 calls)
     cegterg      :      0.19s CPU      0.29s WALL (     176 calls)

     Called by *egterg:
     cdiaghg      :      0.07s CPU      0.18s WALL (     627 calls)
     h_psi        :      0.15s CPU      0.15s WALL (     715 calls)
     g_psi        :      0.00s CPU      0.00s WALL (     495 calls)

     Called by h_psi:
     h_psi:calbec :      0.00s CPU      0.00s WALL (     715 calls)
     vloc_psi     :      0.14s CPU      0.15s WALL (     715 calls)
                                        0.00s GPU  (     715 calls)
     add_vuspsi   :      0.00s CPU      0.00s WALL (     715 calls)

     General routines
     calbec       :      0.01s CPU      0.01s WALL (    1463 calls)
     fft          :      0.00s CPU      0.00s WALL (      20 calls)
     ffts         :      0.00s CPU      0.00s WALL (       4 calls)
     fftw         :      0.15s CPU      0.15s WALL (    7446 calls)

     Parallel routines

     PWSCF        :      0.33s CPU      0.45s WALL


   This run was terminated on:  14: 5:40  26Jan2026            

=------------------------------------------------------------------------------=
   JOB DONE.
=------------------------------------------------------------------------------=
