
     Program PWSCF v.7.5 starts on 31Jan2026 at 23:30:57 

     This program is part of the open-source Quantum ESPRESSO suite
     for quantum simulation of materials; please cite
         "P. Giannozzi et al., J. Phys.:Condens. Matter 21 395502 (2009);
         "P. Giannozzi et al., J. Phys.:Condens. Matter 29 465901 (2017);
         "P. Giannozzi et al., J. Chem. Phys. 152 154105 (2020);
          URL http://www.quantum-espresso.org", 
     in publications or presentations arising from this work. More details at
     http://www.quantum-espresso.org/quote

     Parallel version (MPI), running on     1 processors

     MPI processes distributed on     1 nodes
     0 MiB available memory on the printing compute node when the environment starts

     Waiting for input...
     Reading input from standard input
     Message from routine read_cards :
     DEPRECATED: no units specified in ATOMIC_POSITIONS card
     Message from routine read_cards :
     ATOMIC_POSITIONS: units set to alat

     Current dimensions of program PWSCF are:
     Max number of different atomic species (ntypx) = 10
     Max number of k-points (npk) =  40000
     Max angular momentum in pseudopotentials (lmaxx) =  4
     file Li.pbe-mt_fhi.UPF: wavefunction(s)  2p 4f renormalized

     IMPORTANT: XC functional enforced from input :
     Exchange-correlation= PZ
                           (   1   1   0   0   0   0   0)
     Any further DFT definition will be discarded
     Please, verify this is what you really want


     Subspace diagonalization in iterative solution of the eigenvalue problem:
     a serial algorithm will be used


     G-vector sticks info
     --------------------
     sticks:   dense  smooth     PW     G-vecs:    dense   smooth      PW
     Sum         181     181     63                 1553     1553     321

     Using Slab Decomposition



     bravais-lattice index     =            3
     lattice parameter (alat)  =       6.3900  a.u.
     unit-cell volume          =     130.4586 (a.u.)^3
     number of atoms/cell      =            1
     number of atomic types    =            1
     number of electrons       =         1.00
     number of Kohn-Sham states=            5
     kinetic-energy cutoff     =      20.0000  Ry
     charge density cutoff     =      80.0000  Ry
     scf convergence threshold =      1.0E-08
     mixing beta               =       0.7000
     number of iterations used =            8  plain     mixing
     Exchange-correlation= PZ
                           (   1   1   0   0   0   0   0)

     celldm(1)=   6.390000  celldm(2)=   0.000000  celldm(3)=   0.000000
     celldm(4)=   0.000000  celldm(5)=   0.000000  celldm(6)=   0.000000

     crystal axes: (cart. coord. in units of alat)
               a(1) = (   0.500000   0.500000   0.500000 )  
               a(2) = (  -0.500000   0.500000   0.500000 )  
               a(3) = (  -0.500000  -0.500000   0.500000 )  

     reciprocal axes: (cart. coord. in units 2 pi/alat)
               b(1) = (  1.000000  0.000000  1.000000 )  
               b(2) = ( -1.000000  1.000000  0.000000 )  
               b(3) = (  0.000000 -1.000000  1.000000 )  


     PseudoPot. # 1 for Li read from file:
     ./pseudopot/Li.pbe-mt_fhi.UPF
     MD5 check sum: 3419f5616d131090147e867976aae79b
     Pseudo is Norm-conserving + core correction, Zval =  1.0
     Generated using FHI98PP, converted with fhi2upf.x v.5.0.2
     Using radial grid of  433 points,  3 beta functions with: 
                l(1) =   0
                l(2) =   1
                l(3) =   3

     atomic species   valence    mass     pseudopotential
     Li                1.00     6.94000     Li( 1.00)

     48 Sym. Ops., with inversion, found



   Cartesian axes

     site n.     atom                  positions (alat units)
         1        Li     tau(   1) = (   0.0000000   0.0000000   0.0000000  )

     number of k points=    44  Methfessel-Paxton smearing, width (Ry)=  0.0100
                       cart. coord. in units 2pi/alat
        k(    1) = (   0.0000000   0.0000000   0.1000000), wk =   0.0120000
        k(    2) = (   0.0000000  -0.1000000   0.2000000), wk =   0.0480000
        k(    3) = (   0.0000000  -0.2000000   0.3000000), wk =   0.0480000
        k(    4) = (   0.0000000  -0.3000000   0.4000000), wk =   0.0480000
        k(    5) = (   0.0000000  -0.4000000   0.5000000), wk =   0.0480000
        k(    6) = (  -0.1000000   0.1000000   0.1000000), wk =   0.0160000
        k(    7) = (  -0.1000000  -0.1000000   0.3000000), wk =   0.0480000
        k(    8) = (  -0.1000000  -0.2000000   0.4000000), wk =   0.0960000
        k(    9) = (  -0.1000000  -0.3000000   0.5000000), wk =   0.0960000
        k(   10) = (  -0.1000000   0.6000000  -0.4000000), wk =   0.0480000
        k(   11) = (  -0.2000000   0.2000000   0.1000000), wk =   0.0480000
        k(   12) = (  -0.2000000  -0.2000000   0.5000000), wk =   0.0480000
        k(   13) = (  -0.2000000   0.7000000  -0.4000000), wk =   0.0960000
        k(   14) = (  -0.3000000   0.3000000   0.1000000), wk =   0.0480000
        k(   15) = (  -0.3000000   0.2000000   0.2000000), wk =   0.0480000
        k(   16) = (  -0.3000000   0.7000000  -0.3000000), wk =   0.0160000
        k(   17) = (  -0.4000000   0.4000000   0.1000000), wk =   0.0480000
        k(   18) = (  -0.4000000   0.3000000   0.2000000), wk =   0.0960000
        k(   19) = (   0.5000000  -0.5000000   0.1000000), wk =   0.0240000
        k(   20) = (   0.5000000  -0.6000000   0.2000000), wk =   0.0960000
        k(   21) = (   0.5000000  -0.7000000   0.3000000), wk =   0.0480000
        k(   22) = (   0.4000000  -0.6000000   0.3000000), wk =   0.0480000
        k(   23) = (   0.0000000   0.0000000   0.3000000), wk =   0.0120000
        k(   24) = (   0.0000000  -0.1000000   0.4000000), wk =   0.0480000
        k(   25) = (   0.0000000  -0.2000000   0.5000000), wk =   0.0480000
        k(   26) = (   0.0000000  -0.3000000   0.6000000), wk =   0.0480000
        k(   27) = (  -0.1000000  -0.1000000   0.5000000), wk =   0.0480000
        k(   28) = (  -0.1000000  -0.2000000   0.6000000), wk =   0.0960000
        k(   29) = (  -0.1000000   0.7000000  -0.3000000), wk =   0.0480000
        k(   30) = (  -0.2000000   0.8000000  -0.3000000), wk =   0.0480000
        k(   31) = (  -0.3000000   0.3000000   0.3000000), wk =   0.0160000
        k(   32) = (   0.6000000  -0.6000000   0.3000000), wk =   0.0480000
        k(   33) = (   0.5000000  -0.5000000   0.3000000), wk =   0.0240000
        k(   34) = (   0.5000000  -0.6000000   0.4000000), wk =   0.0480000
        k(   35) = (   0.0000000   0.0000000   0.5000000), wk =   0.0120000
        k(   36) = (   0.0000000  -0.1000000   0.6000000), wk =   0.0480000
        k(   37) = (   0.0000000  -0.2000000   0.7000000), wk =   0.0480000
        k(   38) = (  -0.1000000  -0.1000000   0.7000000), wk =   0.0480000
        k(   39) = (  -0.1000000   0.8000000  -0.2000000), wk =   0.0480000
        k(   40) = (   0.5000000  -0.5000000   0.5000000), wk =   0.0040000
        k(   41) = (   0.0000000   0.0000000   0.7000000), wk =   0.0120000
        k(   42) = (   0.0000000  -0.1000000   0.8000000), wk =   0.0480000
        k(   43) = (  -0.1000000   0.9000000  -0.1000000), wk =   0.0160000
        k(   44) = (   0.0000000   0.0000000   0.9000000), wk =   0.0120000

     Dense  grid:     1553 G-vectors     FFT dimensions: (  15,  15,  15)

     Estimated max dynamical RAM per process >       1.94 MB

     Initial potential from superposition of free atoms

     starting charge       0.9960, renormalised to       1.0000
     Starting wfcs are   16 randomized atomic wfcs

     total cpu time spent up to now is        0.1 secs

     Self-consistent Calculation

     iteration #  1     ecut=    20.00 Ry     beta= 0.70
     Davidson diagonalization with overlap
     ethr =  1.00E-02,  avg # of iterations =  4.4

     Threshold (ethr) on eigenvalues was too large:
     Diagonalizing with lowered threshold

     Davidson diagonalization with overlap
     ethr =  1.96E-05,  avg # of iterations =  3.9

     total cpu time spent up to now is        0.2 secs

     total energy              =      -0.68946542 Ry
     estimated scf accuracy    <       0.00019519 Ry

     iteration #  2     ecut=    20.00 Ry     beta= 0.70
     Davidson diagonalization with overlap
     ethr =  1.95E-05,  avg # of iterations =  1.0

     total cpu time spent up to now is        0.2 secs

     total energy              =      -0.68946291 Ry
     estimated scf accuracy    <       0.00001694 Ry

     iteration #  3     ecut=    20.00 Ry     beta= 0.70
     Davidson diagonalization with overlap
     ethr =  1.69E-06,  avg # of iterations =  1.2

     total cpu time spent up to now is        0.3 secs

     End of self-consistent calculation

          k = 0.0000 0.0000 0.1000 (   197 PWs)   bands (ev):

    -3.0369  14.9542  14.9542  15.2485  19.2147

          k = 0.0000-0.1000 0.2000 (   198 PWs)   bands (ev):

    -2.6460  12.6911  13.5895  14.7009  17.4770

          k = 0.0000-0.2000 0.3000 (   193 PWs)   bands (ev):

    -1.8667   9.4780  12.2510  13.8658  16.7024

          k = 0.0000-0.3000 0.4000 (   192 PWs)   bands (ev):

    -0.7284   6.5305  11.2997  13.1324  15.6746

          k = 0.0000-0.4000 0.5000 (   193 PWs)   bands (ev):

     0.5359   4.3334  10.8143  12.7296  15.1579

          k =-0.1000 0.1000 0.1000 (   198 PWs)   bands (ev):

    -2.8419  13.9419  14.3104  14.3104  18.4838

          k =-0.1000-0.1000 0.3000 (   199 PWs)   bands (ev):

    -2.0581  10.8948  11.4930  13.9961  16.5699

          k =-0.1000-0.2000 0.4000 (   195 PWs)   bands (ev):

    -1.0850   7.9960  10.2391  13.1994  16.5763

          k =-0.1000-0.3000 0.5000 (   191 PWs)   bands (ev):

     0.2026   5.3726   9.5414  12.6032  16.6473

          k =-0.1000 0.6000-0.4000 (   195 PWs)   bands (ev):

     1.1457   3.9716   9.3080  12.3907  16.5874

          k =-0.2000 0.2000 0.1000 (   195 PWs)   bands (ev):

    -2.2568  11.1315  12.7386  13.0748  17.9530

          k =-0.2000-0.2000 0.5000 (   194 PWs)   bands (ev):

     0.0762   6.2612   8.3642  12.7062  16.8263

          k =-0.2000 0.7000-0.4000 (   197 PWs)   bands (ev):

     1.4711   4.2929   7.6342  12.4044  17.3655

          k =-0.3000 0.3000 0.1000 (   194 PWs)   bands (ev):

    -1.2900   7.9559  11.7161  11.9904  17.2145

          k =-0.3000 0.2000 0.2000 (   194 PWs)   bands (ev):

    -1.4772   9.2951  10.3431  11.8374  18.8260

          k =-0.3000 0.7000-0.3000 (   203 PWs)   bands (ev):

     2.9475   2.9475   6.8892  12.3414  19.9826

          k =-0.4000 0.4000 0.1000 (   192 PWs)   bands (ev):

    -0.0191   5.2945  11.0743  11.2973  16.6200

          k =-0.4000 0.3000 0.2000 (   191 PWs)   bands (ev):

    -0.3249   6.5965   9.1893  11.1165  18.9349

          k = 0.5000-0.5000 0.1000 (   192 PWs)   bands (ev):

     0.8890   3.9159  10.8565  11.0614  16.4055

          k = 0.5000-0.6000 0.2000 (   197 PWs)   bands (ev):

     1.0109   4.3678   8.6924  10.7462  18.7846

          k = 0.5000-0.7000 0.3000 (   196 PWs)   bands (ev):

     1.0034   5.0095   7.4389  10.6885  20.3607

          k = 0.4000-0.6000 0.3000 (   201 PWs)   bands (ev):

     2.1818   3.6282   6.9591  10.5429  20.4670

          k = 0.0000 0.0000 0.3000 (   201 PWs)   bands (ev):

    -2.2507  12.0888  12.0888  14.1959  15.0157

          k = 0.0000-0.1000 0.4000 (   198 PWs)   bands (ev):

    -1.4613   9.5950  10.6917  13.5983  14.5114

          k = 0.0000-0.2000 0.5000 (   192 PWs)   bands (ev):

    -0.3020   6.7534   9.7156  12.9526  15.3372

          k = 0.0000-0.3000 0.6000 (   201 PWs)   bands (ev):

     1.0192   4.5327   9.2196  12.6065  16.4032

          k =-0.1000-0.1000 0.5000 (   199 PWs)   bands (ev):

    -0.4714   7.9326   8.9901  13.6525  13.6959

          k =-0.1000-0.2000 0.6000 (   200 PWs)   bands (ev):

     0.8605   5.6140   8.1202  13.1532  14.7003

          k =-0.1000 0.7000-0.3000 (   202 PWs)   bands (ev):

     1.9131   4.1625   7.8664  12.9725  15.6394

          k =-0.2000 0.8000-0.3000 (   202 PWs)   bands (ev):

     2.3280   4.2097   6.9827  13.7833  14.8912

          k =-0.3000 0.3000 0.3000 (   192 PWs)   bands (ev):

    -0.5050   8.0731   8.0731  10.3816  20.5069

          k = 0.6000-0.6000 0.3000 (   192 PWs)   bands (ev):

     0.8251   5.5041   7.3253   9.8581  21.6227

          k = 0.5000-0.5000 0.3000 (   198 PWs)   bands (ev):

     1.9256   3.9629   7.0744   9.6999  21.5257

          k = 0.5000-0.6000 0.4000 (   197 PWs)   bands (ev):

     2.3182   4.2486   5.8717   9.4776  22.7495

          k = 0.0000 0.0000 0.5000 (   201 PWs)   bands (ev):

    -0.6520   9.2713   9.2713  11.8626  13.5052

          k = 0.0000-0.1000 0.6000 (   200 PWs)   bands (ev):

     0.5449   7.1864   8.2851  11.6303  13.5546

          k = 0.0000-0.2000 0.7000 (   202 PWs)   bands (ev):

     1.9712   4.9888   7.7851  11.8521  14.4919

          k =-0.1000-0.1000 0.7000 (   203 PWs)   bands (ev):

     1.9299   5.9046   7.1796  11.6624  13.4739

          k =-0.1000 0.8000-0.2000 (   204 PWs)   bands (ev):

     3.1787   4.5094   6.8222  12.1536  13.8857

          k = 0.5000-0.5000 0.5000 (   180 PWs)   bands (ev):

     3.9943   3.9943   3.9943   9.1723  24.9016

          k = 0.0000 0.0000 0.7000 (   204 PWs)   bands (ev):

     1.7948   7.2940   7.2940   9.7600  13.0359

          k = 0.0000-0.1000 0.8000 (   206 PWs)   bands (ev):

     3.3476   5.7363   6.7922  10.0918  12.3068

          k =-0.1000 0.9000-0.1000 (   206 PWs)   bands (ev):

     4.8820   4.8820   6.3196  10.6337  10.6337

          k = 0.0000 0.0000 0.9000 (   204 PWs)   bands (ev):

     5.0057   6.2902   6.2902   8.7085   9.9127

     the Fermi energy is     0.5776 ev

!    total energy              =      -0.68946296 Ry
     estimated scf accuracy    <          2.7E-10 Ry
     smearing contrib. (-TS)   =      -0.00007601 Ry
     internal energy E=F+TS    =      -0.68938695 Ry

     The total energy is F=E-TS. E is the sum of the following terms:
     one-electron contribution =       0.42765422 Ry
     hartree contribution      =       0.00107553 Ry
     xc contribution           =      -0.54859656 Ry
     ewald contribution        =      -0.56952014 Ry

     convergence has been achieved in   3 iterations

     Forces acting on atoms (cartesian axes, Ry/au):

     atom    1 type  1   force =     0.00000000    0.00000000    0.00000000

     Total force =     0.000000     Total SCF correction =     0.000000


     Computing stress (Cartesian axis) and pressure

          total   stress  (Ry/bohr**3)                   (kbar)     P=       -5.41
  -0.00003676   0.00000000  -0.00000000           -5.41        0.00       -0.00
   0.00000000  -0.00003676   0.00000000            0.00       -5.41        0.00
  -0.00000000   0.00000000  -0.00003676           -0.00        0.00       -5.41


     Writing all to output data dir ./QE-outdir/li.save/ :
     XML data file, charge density, pseudopotentials, collected wavefunctions

     init_run     :      0.04s CPU      0.06s WALL (       1 calls)
     electrons    :      0.13s CPU      0.21s WALL (       1 calls)
     forces       :      0.00s CPU      0.00s WALL (       1 calls)
     stress       :      0.02s CPU      0.02s WALL (       1 calls)

     Called by init_run:
     wfcinit      :      0.03s CPU      0.04s WALL (       1 calls)
     potinit      :      0.00s CPU      0.00s WALL (       1 calls)
     hinit0       :      0.01s CPU      0.01s WALL (       1 calls)

     Called by electrons:
     c_bands      :      0.12s CPU      0.20s WALL (       4 calls)
     sum_band     :      0.01s CPU      0.01s WALL (       4 calls)
     v_of_rho     :      0.00s CPU      0.00s WALL (       4 calls)
     mix_rho      :      0.00s CPU      0.00s WALL (       4 calls)

     Called by c_bands:
     init_us_2    :      0.01s CPU      0.01s WALL (     484 calls)
     cegterg      :      0.11s CPU      0.19s WALL (     176 calls)

     Called by *egterg:
     cdiaghg      :      0.07s CPU      0.16s WALL (     594 calls)
     h_psi        :      0.05s CPU      0.06s WALL (     682 calls)
     g_psi        :      0.00s CPU      0.00s WALL (     462 calls)

     Called by h_psi:
     h_psi:calbec :      0.00s CPU      0.00s WALL (     682 calls)
     vloc_psi     :      0.05s CPU      0.05s WALL (     682 calls)
                                        0.00s GPU  (     682 calls)
     add_vuspsi   :      0.00s CPU      0.00s WALL (     682 calls)

     General routines
     calbec       :      0.01s CPU      0.01s WALL (    1430 calls)
     fft          :      0.00s CPU      0.00s WALL (      20 calls)
     ffts         :      0.00s CPU      0.00s WALL (       4 calls)
     fftw         :      0.04s CPU      0.04s WALL (    7246 calls)

     Parallel routines

     PWSCF        :      0.20s CPU      0.31s WALL


   This run was terminated on:  23:30:57  31Jan2026            

=------------------------------------------------------------------------------=
   JOB DONE.
=------------------------------------------------------------------------------=
