
     Program PWSCF v.7.5 starts on 26Jan2026 at 14: 5:33 

     This program is part of the open-source Quantum ESPRESSO suite
     for quantum simulation of materials; please cite
         "P. Giannozzi et al., J. Phys.:Condens. Matter 21 395502 (2009);
         "P. Giannozzi et al., J. Phys.:Condens. Matter 29 465901 (2017);
         "P. Giannozzi et al., J. Chem. Phys. 152 154105 (2020);
          URL http://www.quantum-espresso.org", 
     in publications or presentations arising from this work. More details at
     http://www.quantum-espresso.org/quote

     Parallel version (MPI), running on     1 processors

     MPI processes distributed on     1 nodes
     0 MiB available memory on the printing compute node when the environment starts

     Waiting for input...
     Reading input from standard input
     Message from routine read_cards :
     DEPRECATED: no units specified in ATOMIC_POSITIONS card
     Message from routine read_cards :
     ATOMIC_POSITIONS: units set to alat

     Current dimensions of program PWSCF are:
     Max number of different atomic species (ntypx) = 10
     Max number of k-points (npk) =  40000
     Max angular momentum in pseudopotentials (lmaxx) =  4
     file Li.pbe-mt_fhi.UPF: wavefunction(s)  2p 4f renormalized

     IMPORTANT: XC functional enforced from input :
     Exchange-correlation= PZ
                           (   1   1   0   0   0   0   0)
     Any further DFT definition will be discarded
     Please, verify this is what you really want


     Subspace diagonalization in iterative solution of the eigenvalue problem:
     a serial algorithm will be used


     G-vector sticks info
     --------------------
     sticks:   dense  smooth     PW     G-vecs:    dense   smooth      PW
     Sum         173     173     63                 1433     1433     321

     Using Slab Decomposition



     bravais-lattice index     =            3
     lattice parameter (alat)  =       6.1500  a.u.
     unit-cell volume          =     116.3042 (a.u.)^3
     number of atoms/cell      =            1
     number of atomic types    =            1
     number of electrons       =         1.00
     number of Kohn-Sham states=            5
     kinetic-energy cutoff     =      20.0000  Ry
     charge density cutoff     =      80.0000  Ry
     scf convergence threshold =      1.0E-08
     mixing beta               =       0.7000
     number of iterations used =            8  plain     mixing
     Exchange-correlation= PZ
                           (   1   1   0   0   0   0   0)

     celldm(1)=   6.150000  celldm(2)=   0.000000  celldm(3)=   0.000000
     celldm(4)=   0.000000  celldm(5)=   0.000000  celldm(6)=   0.000000

     crystal axes: (cart. coord. in units of alat)
               a(1) = (   0.500000   0.500000   0.500000 )  
               a(2) = (  -0.500000   0.500000   0.500000 )  
               a(3) = (  -0.500000  -0.500000   0.500000 )  

     reciprocal axes: (cart. coord. in units 2 pi/alat)
               b(1) = (  1.000000  0.000000  1.000000 )  
               b(2) = ( -1.000000  1.000000  0.000000 )  
               b(3) = (  0.000000 -1.000000  1.000000 )  


     PseudoPot. # 1 for Li read from file:
     ./pseudopot/Li.pbe-mt_fhi.UPF
     MD5 check sum: 3419f5616d131090147e867976aae79b
     Pseudo is Norm-conserving + core correction, Zval =  1.0
     Generated using FHI98PP, converted with fhi2upf.x v.5.0.2
     Using radial grid of  433 points,  3 beta functions with: 
                l(1) =   0
                l(2) =   1
                l(3) =   3

     atomic species   valence    mass     pseudopotential
     Li                1.00     6.94000     Li( 1.00)

     48 Sym. Ops., with inversion, found



   Cartesian axes

     site n.     atom                  positions (alat units)
         1        Li     tau(   1) = (   0.0000000   0.0000000   0.0000000  )

     number of k points=    44  Methfessel-Paxton smearing, width (Ry)=  0.0100
                       cart. coord. in units 2pi/alat
        k(    1) = (   0.0000000   0.0000000   0.1000000), wk =   0.0120000
        k(    2) = (   0.0000000  -0.1000000   0.2000000), wk =   0.0480000
        k(    3) = (   0.0000000  -0.2000000   0.3000000), wk =   0.0480000
        k(    4) = (   0.0000000  -0.3000000   0.4000000), wk =   0.0480000
        k(    5) = (   0.0000000  -0.4000000   0.5000000), wk =   0.0480000
        k(    6) = (  -0.1000000   0.1000000   0.1000000), wk =   0.0160000
        k(    7) = (  -0.1000000  -0.1000000   0.3000000), wk =   0.0480000
        k(    8) = (  -0.1000000  -0.2000000   0.4000000), wk =   0.0960000
        k(    9) = (  -0.1000000  -0.3000000   0.5000000), wk =   0.0960000
        k(   10) = (  -0.1000000   0.6000000  -0.4000000), wk =   0.0480000
        k(   11) = (  -0.2000000   0.2000000   0.1000000), wk =   0.0480000
        k(   12) = (  -0.2000000  -0.2000000   0.5000000), wk =   0.0480000
        k(   13) = (  -0.2000000   0.7000000  -0.4000000), wk =   0.0960000
        k(   14) = (  -0.3000000   0.3000000   0.1000000), wk =   0.0480000
        k(   15) = (  -0.3000000   0.2000000   0.2000000), wk =   0.0480000
        k(   16) = (  -0.3000000   0.7000000  -0.3000000), wk =   0.0160000
        k(   17) = (  -0.4000000   0.4000000   0.1000000), wk =   0.0480000
        k(   18) = (  -0.4000000   0.3000000   0.2000000), wk =   0.0960000
        k(   19) = (   0.5000000  -0.5000000   0.1000000), wk =   0.0240000
        k(   20) = (   0.5000000  -0.6000000   0.2000000), wk =   0.0960000
        k(   21) = (   0.5000000  -0.7000000   0.3000000), wk =   0.0480000
        k(   22) = (   0.4000000  -0.6000000   0.3000000), wk =   0.0480000
        k(   23) = (   0.0000000   0.0000000   0.3000000), wk =   0.0120000
        k(   24) = (   0.0000000  -0.1000000   0.4000000), wk =   0.0480000
        k(   25) = (   0.0000000  -0.2000000   0.5000000), wk =   0.0480000
        k(   26) = (   0.0000000  -0.3000000   0.6000000), wk =   0.0480000
        k(   27) = (  -0.1000000  -0.1000000   0.5000000), wk =   0.0480000
        k(   28) = (  -0.1000000  -0.2000000   0.6000000), wk =   0.0960000
        k(   29) = (  -0.1000000   0.7000000  -0.3000000), wk =   0.0480000
        k(   30) = (  -0.2000000   0.8000000  -0.3000000), wk =   0.0480000
        k(   31) = (  -0.3000000   0.3000000   0.3000000), wk =   0.0160000
        k(   32) = (   0.6000000  -0.6000000   0.3000000), wk =   0.0480000
        k(   33) = (   0.5000000  -0.5000000   0.3000000), wk =   0.0240000
        k(   34) = (   0.5000000  -0.6000000   0.4000000), wk =   0.0480000
        k(   35) = (   0.0000000   0.0000000   0.5000000), wk =   0.0120000
        k(   36) = (   0.0000000  -0.1000000   0.6000000), wk =   0.0480000
        k(   37) = (   0.0000000  -0.2000000   0.7000000), wk =   0.0480000
        k(   38) = (  -0.1000000  -0.1000000   0.7000000), wk =   0.0480000
        k(   39) = (  -0.1000000   0.8000000  -0.2000000), wk =   0.0480000
        k(   40) = (   0.5000000  -0.5000000   0.5000000), wk =   0.0040000
        k(   41) = (   0.0000000   0.0000000   0.7000000), wk =   0.0120000
        k(   42) = (   0.0000000  -0.1000000   0.8000000), wk =   0.0480000
        k(   43) = (  -0.1000000   0.9000000  -0.1000000), wk =   0.0160000
        k(   44) = (   0.0000000   0.0000000   0.9000000), wk =   0.0120000

     Dense  grid:     1433 G-vectors     FFT dimensions: (  15,  15,  15)

     Estimated max dynamical RAM per process >       1.81 MB

     Initial potential from superposition of free atoms

     starting charge       0.9960, renormalised to       1.0000
     Starting wfcs are   16 randomized atomic wfcs

     total cpu time spent up to now is        0.1 secs

     Self-consistent Calculation

     iteration #  1     ecut=    20.00 Ry     beta= 0.70
     Davidson diagonalization with overlap
     ethr =  1.00E-02,  avg # of iterations =  4.5

     Threshold (ethr) on eigenvalues was too large:
     Diagonalizing with lowered threshold

     Davidson diagonalization with overlap
     ethr =  2.53E-05,  avg # of iterations =  4.0

     total cpu time spent up to now is        0.2 secs

     total energy              =      -0.68913820 Ry
     estimated scf accuracy    <       0.00025549 Ry

     iteration #  2     ecut=    20.00 Ry     beta= 0.70
     Davidson diagonalization with overlap
     ethr =  2.55E-05,  avg # of iterations =  1.0

     total cpu time spent up to now is        0.2 secs

     total energy              =      -0.68913473 Ry
     estimated scf accuracy    <       0.00002208 Ry

     iteration #  3     ecut=    20.00 Ry     beta= 0.70
     Davidson diagonalization with overlap
     ethr =  2.21E-06,  avg # of iterations =  1.1

     total cpu time spent up to now is        0.3 secs

     End of self-consistent calculation

          k = 0.0000 0.0000 0.1000 (   177 PWs)   bands (ev):

    -2.8556  16.4985  16.4985  16.8347  20.9357

          k = 0.0000-0.1000 0.2000 (   173 PWs)   bands (ev):

    -2.4491  14.0199  14.9982  16.2241  19.1048

          k = 0.0000-0.2000 0.3000 (   177 PWs)   bands (ev):

    -1.6384  10.5440  13.5392  15.2946  18.2544

          k = 0.0000-0.3000 0.4000 (   178 PWs)   bands (ev):

    -0.4558   7.3898  12.5059  14.4871  17.1440

          k = 0.0000-0.4000 0.5000 (   179 PWs)   bands (ev):

     0.8381   5.0805  11.9788  14.0458  16.5858

          k =-0.1000 0.1000 0.1000 (   177 PWs)   bands (ev):

    -2.6530  15.4170  15.7685  15.7685  20.2070

          k =-0.1000-0.1000 0.3000 (   172 PWs)   bands (ev):

    -1.8368  12.0302  12.7580  15.4472  18.1244

          k =-0.1000-0.2000 0.4000 (   175 PWs)   bands (ev):

    -0.8224   8.9216  11.3958  14.5638  18.1527

          k =-0.1000-0.3000 0.5000 (   177 PWs)   bands (ev):

     0.5146   6.1331  10.6396  13.9079  18.2644

          k =-0.1000 0.6000-0.4000 (   174 PWs)   bands (ev):

     1.4715   4.6789  10.3875  13.6754  18.2075

          k =-0.2000 0.2000 0.1000 (   175 PWs)   bands (ev):

    -2.0446  12.3177  14.1069  14.3984  19.6537

          k =-0.2000-0.2000 0.5000 (   175 PWs)   bands (ev):

     0.3926   7.0031   9.4510  14.0247  18.4057

          k =-0.2000 0.7000-0.4000 (   175 PWs)   bands (ev):

     1.8463   4.9113   8.6801  13.6978  19.0139

          k =-0.3000 0.3000 0.1000 (   177 PWs)   bands (ev):

    -1.0387   8.9010  13.0066  13.2111  18.8425

          k =-0.3000 0.2000 0.2000 (   175 PWs)   bands (ev):

    -1.2325  10.2868  11.5050  13.1331  20.6410

          k =-0.3000 0.7000-0.3000 (   179 PWs)   bands (ev):

     3.4191   3.4191   7.9387  13.6345  20.4128

          k =-0.4000 0.4000 0.1000 (   179 PWs)   bands (ev):

     0.2771   6.0709  12.3143  12.4556  18.1917

          k =-0.4000 0.3000 0.2000 (   175 PWs)   bands (ev):

    -0.0305   7.4010  10.2461  12.3777  20.7514

          k = 0.5000-0.5000 0.1000 (   174 PWs)   bands (ev):

     1.1940   4.6422  12.0798  12.1989  17.9577

          k = 0.5000-0.6000 0.2000 (   173 PWs)   bands (ev):

     1.3505   5.0509   9.7029  11.9890  20.5821

          k = 0.5000-0.7000 0.3000 (   173 PWs)   bands (ev):

     1.3626   5.6478   8.4212  11.9473  22.2508

          k = 0.4000-0.6000 0.3000 (   169 PWs)   bands (ev):

     2.5913   4.1818   7.9167  11.8017  22.4195

          k = 0.0000 0.0000 0.3000 (   177 PWs)   bands (ev):

    -2.0367  13.3515  13.3515  15.7373  16.4025

          k = 0.0000-0.1000 0.4000 (   171 PWs)   bands (ev):

    -1.2123  10.6503  11.8333  15.0421  15.9384

          k = 0.0000-0.2000 0.5000 (   177 PWs)   bands (ev):

    -0.0022   7.6028  10.7741  14.3553  16.8323

          k = 0.0000-0.3000 0.6000 (   175 PWs)   bands (ev):

     1.3605   5.2612  10.2367  13.9887  17.9994

          k =-0.1000-0.1000 0.5000 (   178 PWs)   bands (ev):

    -0.1748   8.8182  10.0449  15.0070  15.1578

          k =-0.1000-0.2000 0.6000 (   178 PWs)   bands (ev):

     1.2190   6.3431   9.1169  14.5567  16.1460

          k =-0.1000 0.7000-0.3000 (   177 PWs)   bands (ev):

     2.3013   4.8285   8.8429  14.3673  17.1629

          k =-0.2000 0.8000-0.3000 (   175 PWs)   bands (ev):

     2.7664   4.7849   7.9808  15.2593  16.3057

          k =-0.3000 0.3000 0.3000 (   177 PWs)   bands (ev):

    -0.2167   8.9610   8.9610  11.7111  22.4668

          k = 0.6000-0.6000 0.3000 (   177 PWs)   bands (ev):

     1.1759   6.2064   8.1509  11.1874  23.6772

          k = 0.5000-0.5000 0.3000 (   172 PWs)   bands (ev):

     2.3141   4.5871   7.8792  11.0291  23.5582

          k = 0.5000-0.6000 0.4000 (   169 PWs)   bands (ev):

     2.7534   4.8243   6.6105  10.8310  24.9209

          k = 0.0000 0.0000 0.5000 (   168 PWs)   bands (ev):

    -0.3608  10.2914  10.2914  12.9985  15.0793

          k = 0.0000-0.1000 0.6000 (   174 PWs)   bands (ev):

     0.8987   8.0391   9.2221  12.7905  15.1232

          k = 0.0000-0.2000 0.7000 (   178 PWs)   bands (ev):

     2.3888   5.7038   8.6804  13.1317  16.0290

          k =-0.1000-0.1000 0.7000 (   177 PWs)   bands (ev):

     2.3624   6.6234   8.0830  12.8080  15.0222

          k =-0.1000 0.8000-0.2000 (   181 PWs)   bands (ev):

     3.6707   5.1423   7.7130  13.3857  15.2178

          k = 0.5000-0.5000 0.5000 (   180 PWs)   bands (ev):

     4.5485   4.5485   4.5485  10.5634  27.2570

          k = 0.0000 0.0000 0.7000 (   180 PWs)   bands (ev):

     2.2280   8.1483   8.1483  10.7284  14.5797

          k = 0.0000-0.1000 0.8000 (   178 PWs)   bands (ev):

     3.8750   6.4710   7.6053  11.1186  13.5705

          k =-0.1000 0.9000-0.1000 (   176 PWs)   bands (ev):

     5.5175   5.5175   7.1380  11.6963  11.6963

          k = 0.0000 0.0000 0.9000 (   176 PWs)   bands (ev):

     5.6643   7.0615   7.0615   9.5933  10.9216

     the Fermi energy is     0.9078 ev

!    total energy              =      -0.68913479 Ry
     estimated scf accuracy    <          2.4E-10 Ry
     smearing contrib. (-TS)   =      -0.00007140 Ry
     internal energy E=F+TS    =      -0.68906338 Ry

     The total energy is F=E-TS. E is the sum of the following terms:
     one-electron contribution =       0.46560937 Ry
     hartree contribution      =       0.00128199 Ry
     xc contribution           =      -0.56420944 Ry
     ewald contribution        =      -0.59174531 Ry

     convergence has been achieved in   3 iterations

     Forces acting on atoms (cartesian axes, Ry/au):

     atom    1 type  1   force =     0.00000000    0.00000000    0.00000000

     Total force =     0.000000     Total SCF correction =     0.000000


     Computing stress (Cartesian axis) and pressure

          total   stress  (Ry/bohr**3)                   (kbar)     P=       13.27
   0.00009024  -0.00000000   0.00000000           13.27       -0.00        0.00
  -0.00000000   0.00009024  -0.00000000           -0.00       13.27       -0.00
   0.00000000  -0.00000000   0.00009024            0.00       -0.00       13.27


     Writing all to output data dir ./QE-outdir/li.save/ :
     XML data file, charge density, pseudopotentials, collected wavefunctions

     init_run     :      0.04s CPU      0.05s WALL (       1 calls)
     electrons    :      0.12s CPU      0.21s WALL (       1 calls)
     forces       :      0.00s CPU      0.00s WALL (       1 calls)
     stress       :      0.02s CPU      0.02s WALL (       1 calls)

     Called by init_run:
     wfcinit      :      0.03s CPU      0.04s WALL (       1 calls)
     potinit      :      0.00s CPU      0.00s WALL (       1 calls)
     hinit0       :      0.01s CPU      0.01s WALL (       1 calls)

     Called by electrons:
     c_bands      :      0.11s CPU      0.20s WALL (       4 calls)
     sum_band     :      0.01s CPU      0.01s WALL (       4 calls)
     v_of_rho     :      0.00s CPU      0.00s WALL (       4 calls)
     mix_rho      :      0.00s CPU      0.00s WALL (       4 calls)

     Called by c_bands:
     init_us_2    :      0.01s CPU      0.01s WALL (     484 calls)
     cegterg      :      0.11s CPU      0.19s WALL (     176 calls)

     Called by *egterg:
     cdiaghg      :      0.07s CPU      0.16s WALL (     602 calls)
     h_psi        :      0.05s CPU      0.05s WALL (     690 calls)
     g_psi        :      0.00s CPU      0.00s WALL (     470 calls)

     Called by h_psi:
     h_psi:calbec :      0.00s CPU      0.00s WALL (     690 calls)
     vloc_psi     :      0.05s CPU      0.05s WALL (     690 calls)
                                        0.00s GPU  (     690 calls)
     add_vuspsi   :      0.00s CPU      0.00s WALL (     690 calls)

     General routines
     calbec       :      0.01s CPU      0.01s WALL (    1438 calls)
     fft          :      0.00s CPU      0.00s WALL (      20 calls)
     ffts         :      0.00s CPU      0.00s WALL (       4 calls)
     fftw         :      0.04s CPU      0.04s WALL (    7176 calls)

     Parallel routines

     PWSCF        :      0.19s CPU      0.30s WALL


   This run was terminated on:  14: 5:34  26Jan2026            

=------------------------------------------------------------------------------=
   JOB DONE.
=------------------------------------------------------------------------------=
