
     Program PWSCF v.7.5 starts on 31Jan2026 at 23:30:50 

     This program is part of the open-source Quantum ESPRESSO suite
     for quantum simulation of materials; please cite
         "P. Giannozzi et al., J. Phys.:Condens. Matter 21 395502 (2009);
         "P. Giannozzi et al., J. Phys.:Condens. Matter 29 465901 (2017);
         "P. Giannozzi et al., J. Chem. Phys. 152 154105 (2020);
          URL http://www.quantum-espresso.org", 
     in publications or presentations arising from this work. More details at
     http://www.quantum-espresso.org/quote

     Parallel version (MPI), running on     1 processors

     MPI processes distributed on     1 nodes
     0 MiB available memory on the printing compute node when the environment starts

     Waiting for input...
     Reading input from standard input
     Message from routine read_cards :
     DEPRECATED: no units specified in ATOMIC_POSITIONS card
     Message from routine read_cards :
     ATOMIC_POSITIONS: units set to alat

     Current dimensions of program PWSCF are:
     Max number of different atomic species (ntypx) = 10
     Max number of k-points (npk) =  40000
     Max angular momentum in pseudopotentials (lmaxx) =  4
     file Li.pbe-mt_fhi.UPF: wavefunction(s)  2p 4f renormalized

     IMPORTANT: XC functional enforced from input :
     Exchange-correlation= PZ
                           (   1   1   0   0   0   0   0)
     Any further DFT definition will be discarded
     Please, verify this is what you really want


     Subspace diagonalization in iterative solution of the eigenvalue problem:
     a serial algorithm will be used


     G-vector sticks info
     --------------------
     sticks:   dense  smooth     PW     G-vecs:    dense   smooth      PW
     Sum         173     173     63                 1433     1433     321

     Using Slab Decomposition



     bravais-lattice index     =            3
     lattice parameter (alat)  =       6.1700  a.u.
     unit-cell volume          =     117.4426 (a.u.)^3
     number of atoms/cell      =            1
     number of atomic types    =            1
     number of electrons       =         1.00
     number of Kohn-Sham states=            5
     kinetic-energy cutoff     =      20.0000  Ry
     charge density cutoff     =      80.0000  Ry
     scf convergence threshold =      1.0E-08
     mixing beta               =       0.7000
     number of iterations used =            8  plain     mixing
     Exchange-correlation= PZ
                           (   1   1   0   0   0   0   0)

     celldm(1)=   6.170000  celldm(2)=   0.000000  celldm(3)=   0.000000
     celldm(4)=   0.000000  celldm(5)=   0.000000  celldm(6)=   0.000000

     crystal axes: (cart. coord. in units of alat)
               a(1) = (   0.500000   0.500000   0.500000 )  
               a(2) = (  -0.500000   0.500000   0.500000 )  
               a(3) = (  -0.500000  -0.500000   0.500000 )  

     reciprocal axes: (cart. coord. in units 2 pi/alat)
               b(1) = (  1.000000  0.000000  1.000000 )  
               b(2) = ( -1.000000  1.000000  0.000000 )  
               b(3) = (  0.000000 -1.000000  1.000000 )  


     PseudoPot. # 1 for Li read from file:
     ./pseudopot/Li.pbe-mt_fhi.UPF
     MD5 check sum: 3419f5616d131090147e867976aae79b
     Pseudo is Norm-conserving + core correction, Zval =  1.0
     Generated using FHI98PP, converted with fhi2upf.x v.5.0.2
     Using radial grid of  433 points,  3 beta functions with: 
                l(1) =   0
                l(2) =   1
                l(3) =   3

     atomic species   valence    mass     pseudopotential
     Li                1.00     6.94000     Li( 1.00)

     48 Sym. Ops., with inversion, found



   Cartesian axes

     site n.     atom                  positions (alat units)
         1        Li     tau(   1) = (   0.0000000   0.0000000   0.0000000  )

     number of k points=    44  Methfessel-Paxton smearing, width (Ry)=  0.0100
                       cart. coord. in units 2pi/alat
        k(    1) = (   0.0000000   0.0000000   0.1000000), wk =   0.0120000
        k(    2) = (   0.0000000  -0.1000000   0.2000000), wk =   0.0480000
        k(    3) = (   0.0000000  -0.2000000   0.3000000), wk =   0.0480000
        k(    4) = (   0.0000000  -0.3000000   0.4000000), wk =   0.0480000
        k(    5) = (   0.0000000  -0.4000000   0.5000000), wk =   0.0480000
        k(    6) = (  -0.1000000   0.1000000   0.1000000), wk =   0.0160000
        k(    7) = (  -0.1000000  -0.1000000   0.3000000), wk =   0.0480000
        k(    8) = (  -0.1000000  -0.2000000   0.4000000), wk =   0.0960000
        k(    9) = (  -0.1000000  -0.3000000   0.5000000), wk =   0.0960000
        k(   10) = (  -0.1000000   0.6000000  -0.4000000), wk =   0.0480000
        k(   11) = (  -0.2000000   0.2000000   0.1000000), wk =   0.0480000
        k(   12) = (  -0.2000000  -0.2000000   0.5000000), wk =   0.0480000
        k(   13) = (  -0.2000000   0.7000000  -0.4000000), wk =   0.0960000
        k(   14) = (  -0.3000000   0.3000000   0.1000000), wk =   0.0480000
        k(   15) = (  -0.3000000   0.2000000   0.2000000), wk =   0.0480000
        k(   16) = (  -0.3000000   0.7000000  -0.3000000), wk =   0.0160000
        k(   17) = (  -0.4000000   0.4000000   0.1000000), wk =   0.0480000
        k(   18) = (  -0.4000000   0.3000000   0.2000000), wk =   0.0960000
        k(   19) = (   0.5000000  -0.5000000   0.1000000), wk =   0.0240000
        k(   20) = (   0.5000000  -0.6000000   0.2000000), wk =   0.0960000
        k(   21) = (   0.5000000  -0.7000000   0.3000000), wk =   0.0480000
        k(   22) = (   0.4000000  -0.6000000   0.3000000), wk =   0.0480000
        k(   23) = (   0.0000000   0.0000000   0.3000000), wk =   0.0120000
        k(   24) = (   0.0000000  -0.1000000   0.4000000), wk =   0.0480000
        k(   25) = (   0.0000000  -0.2000000   0.5000000), wk =   0.0480000
        k(   26) = (   0.0000000  -0.3000000   0.6000000), wk =   0.0480000
        k(   27) = (  -0.1000000  -0.1000000   0.5000000), wk =   0.0480000
        k(   28) = (  -0.1000000  -0.2000000   0.6000000), wk =   0.0960000
        k(   29) = (  -0.1000000   0.7000000  -0.3000000), wk =   0.0480000
        k(   30) = (  -0.2000000   0.8000000  -0.3000000), wk =   0.0480000
        k(   31) = (  -0.3000000   0.3000000   0.3000000), wk =   0.0160000
        k(   32) = (   0.6000000  -0.6000000   0.3000000), wk =   0.0480000
        k(   33) = (   0.5000000  -0.5000000   0.3000000), wk =   0.0240000
        k(   34) = (   0.5000000  -0.6000000   0.4000000), wk =   0.0480000
        k(   35) = (   0.0000000   0.0000000   0.5000000), wk =   0.0120000
        k(   36) = (   0.0000000  -0.1000000   0.6000000), wk =   0.0480000
        k(   37) = (   0.0000000  -0.2000000   0.7000000), wk =   0.0480000
        k(   38) = (  -0.1000000  -0.1000000   0.7000000), wk =   0.0480000
        k(   39) = (  -0.1000000   0.8000000  -0.2000000), wk =   0.0480000
        k(   40) = (   0.5000000  -0.5000000   0.5000000), wk =   0.0040000
        k(   41) = (   0.0000000   0.0000000   0.7000000), wk =   0.0120000
        k(   42) = (   0.0000000  -0.1000000   0.8000000), wk =   0.0480000
        k(   43) = (  -0.1000000   0.9000000  -0.1000000), wk =   0.0160000
        k(   44) = (   0.0000000   0.0000000   0.9000000), wk =   0.0120000

     Dense  grid:     1433 G-vectors     FFT dimensions: (  15,  15,  15)

     Estimated max dynamical RAM per process >       1.81 MB

     Initial potential from superposition of free atoms

     starting charge       0.9960, renormalised to       1.0000
     Starting wfcs are   16 randomized atomic wfcs

     total cpu time spent up to now is        0.1 secs

     Self-consistent Calculation

     iteration #  1     ecut=    20.00 Ry     beta= 0.70
     Davidson diagonalization with overlap
     ethr =  1.00E-02,  avg # of iterations =  4.4

     Threshold (ethr) on eigenvalues was too large:
     Diagonalizing with lowered threshold

     Davidson diagonalization with overlap
     ethr =  2.47E-05,  avg # of iterations =  3.8

     total cpu time spent up to now is        0.2 secs

     total energy              =      -0.68923500 Ry
     estimated scf accuracy    <       0.00024948 Ry

     iteration #  2     ecut=    20.00 Ry     beta= 0.70
     Davidson diagonalization with overlap
     ethr =  2.49E-05,  avg # of iterations =  1.0

     total cpu time spent up to now is        0.2 secs

     total energy              =      -0.68923163 Ry
     estimated scf accuracy    <       0.00002156 Ry

     iteration #  3     ecut=    20.00 Ry     beta= 0.70
     Davidson diagonalization with overlap
     ethr =  2.16E-06,  avg # of iterations =  1.5

     total cpu time spent up to now is        0.3 secs

     End of self-consistent calculation

          k = 0.0000 0.0000 0.1000 (   181 PWs)   bands (ev):

    -2.8726  16.3626  16.3627  16.6933  20.7843

          k = 0.0000-0.1000 0.2000 (   181 PWs)   bands (ev):

    -2.4675  13.9024  14.8732  16.0895  18.9610

          k = 0.0000-0.2000 0.3000 (   177 PWs)   bands (ev):

    -1.6592  10.4502  13.4261  15.1690  18.1180

          k = 0.0000-0.3000 0.4000 (   178 PWs)   bands (ev):

    -0.4802   7.3139  12.3998  14.3680  17.0147

          k = 0.0000-0.4000 0.5000 (   182 PWs)   bands (ev):

     0.8113   5.0141  11.8763  13.9298  16.4602

          k =-0.1000 0.1000 0.1000 (   183 PWs)   bands (ev):

    -2.6708  15.2862  15.6401  15.6401  20.0552

          k =-0.1000-0.1000 0.3000 (   172 PWs)   bands (ev):

    -1.8570  11.9305  12.6468  15.3198  17.9877

          k =-0.1000-0.2000 0.4000 (   176 PWs)   bands (ev):

    -0.8461   8.8402  11.2940  14.4437  18.0141

          k =-0.1000-0.3000 0.5000 (   177 PWs)   bands (ev):

     0.4869   6.0660  10.5429  13.7932  18.1223

          k =-0.1000 0.6000-0.4000 (   174 PWs)   bands (ev):

     1.4428   4.6164  10.2924  13.5625  18.0651

          k =-0.2000 0.2000 0.1000 (   175 PWs)   bands (ev):

    -2.0641  12.2135  13.9866  14.2821  19.5042

          k =-0.2000-0.2000 0.5000 (   175 PWs)   bands (ev):

     0.3644   6.9379   9.3551  13.9089  18.2670

          k =-0.2000 0.7000-0.4000 (   175 PWs)   bands (ev):

     1.8132   4.8569   8.5876  13.5841  18.8692

          k =-0.3000 0.3000 0.1000 (   177 PWs)   bands (ev):

    -1.0614   8.8178  12.8930  13.1038  18.6994

          k =-0.3000 0.2000 0.2000 (   175 PWs)   bands (ev):

    -1.2547  10.1997  11.4031  13.0188  20.4815

          k =-0.3000 0.7000-0.3000 (   179 PWs)   bands (ev):

     3.3776   3.3776   7.8459  13.5207  20.2611

          k =-0.4000 0.4000 0.1000 (   179 PWs)   bands (ev):

     0.2508   6.0023  12.2052  12.3538  18.0535

          k =-0.4000 0.3000 0.2000 (   175 PWs)   bands (ev):

    -0.0568   7.3302  10.1532  12.2664  20.5917

          k = 0.5000-0.5000 0.1000 (   174 PWs)   bands (ev):

     1.1671   4.5779  11.9722  12.0988  17.8212

          k = 0.5000-0.6000 0.2000 (   177 PWs)   bands (ev):

     1.3204   4.9905   9.6140  11.8788  20.4242

          k = 0.5000-0.7000 0.3000 (   179 PWs)   bands (ev):

     1.3306   5.5913   8.3348  11.8359  22.0838

          k = 0.4000-0.6000 0.3000 (   175 PWs)   bands (ev):

     2.5550   4.1329   7.8323  11.6902  22.2479

          k = 0.0000 0.0000 0.3000 (   177 PWs)   bands (ev):

    -2.0564  13.2405  13.2405  15.6019  16.2805

          k = 0.0000-0.1000 0.4000 (   175 PWs)   bands (ev):

    -1.2349  10.5573  11.7326  14.9156  15.8123

          k = 0.0000-0.2000 0.5000 (   177 PWs)   bands (ev):

    -0.0290   7.5280  10.6810  14.2320  16.7007

          k = 0.0000-0.3000 0.6000 (   179 PWs)   bands (ev):

     1.3302   5.1967  10.1469  13.8671  17.8592

          k =-0.1000-0.1000 0.5000 (   178 PWs)   bands (ev):

    -0.2013   8.7404   9.9521  14.8917  15.0255

          k =-0.1000-0.2000 0.6000 (   181 PWs)   bands (ev):

     1.1872   6.2788   9.0289  14.4333  16.0186

          k =-0.1000 0.7000-0.3000 (   177 PWs)   bands (ev):

     2.2671   4.7698   8.7568  14.2448  17.0290

          k =-0.2000 0.8000-0.3000 (   181 PWs)   bands (ev):

     2.7275   4.7341   7.8926  15.1289  16.1811

          k =-0.3000 0.3000 0.3000 (   177 PWs)   bands (ev):

    -0.2425   8.8828   8.8828  11.5937  22.2945

          k = 0.6000-0.6000 0.3000 (   178 PWs)   bands (ev):

     1.1448   6.1445   8.0782  11.0698  23.4946

          k = 0.5000-0.5000 0.3000 (   172 PWs)   bands (ev):

     2.2799   4.5322   7.8083  10.9115  23.3796

          k = 0.5000-0.6000 0.4000 (   171 PWs)   bands (ev):

     2.7150   4.7736   6.5455  10.7110  25.5715

          k = 0.0000 0.0000 0.5000 (   184 PWs)   bands (ev):

    -0.3871  10.2005  10.2005  12.8986  14.9394

          k = 0.0000-0.1000 0.6000 (   178 PWs)   bands (ev):

     0.8672   7.9640   9.1395  12.6885  14.9845

          k = 0.0000-0.2000 0.7000 (   178 PWs)   bands (ev):

     2.3520   5.6407   8.6017  13.0195  15.8939

          k =-0.1000-0.1000 0.7000 (   177 PWs)   bands (ev):

     2.3242   6.5602   8.0035  12.7072  14.8865

          k =-0.1000 0.8000-0.2000 (   181 PWs)   bands (ev):

     3.6274   5.0866   7.6345  13.2776  15.1005

          k = 0.5000-0.5000 0.5000 (   180 PWs)   bands (ev):

     4.4997   4.4997   4.4997  10.4401  27.0497

          k = 0.0000 0.0000 0.7000 (   180 PWs)   bands (ev):

     2.1897   8.0732   8.0732  10.6432  14.4444

          k = 0.0000-0.1000 0.8000 (   182 PWs)   bands (ev):

     3.8284   6.4063   7.5336  11.0282  13.4596

          k =-0.1000 0.9000-0.1000 (   182 PWs)   bands (ev):

     5.4613   5.4613   7.0661  11.6027  11.6027

          k = 0.0000 0.0000 0.9000 (   180 PWs)   bands (ev):

     5.6064   6.9934   6.9934   9.5154  10.8328

     the Fermi energy is     0.8783 ev

!    total energy              =      -0.68923168 Ry
     estimated scf accuracy    <          2.4E-10 Ry
     smearing contrib. (-TS)   =      -0.00007314 Ry
     internal energy E=F+TS    =      -0.68915854 Ry

     The total energy is F=E-TS. E is the sum of the following terms:
     one-electron contribution =       0.46226117 Ry
     hartree contribution      =       0.00126416 Ry
     xc contribution           =      -0.56285670 Ry
     ewald contribution        =      -0.58982717 Ry

     convergence has been achieved in   3 iterations

     Forces acting on atoms (cartesian axes, Ry/au):

     atom    1 type  1   force =     0.00000000    0.00000000    0.00000000

     Total force =     0.000000     Total SCF correction =     0.000000


     Computing stress (Cartesian axis) and pressure

          total   stress  (Ry/bohr**3)                   (kbar)     P=       11.40
   0.00007752   0.00000000   0.00000000           11.40        0.00        0.00
   0.00000000   0.00007752   0.00000000            0.00       11.40        0.00
   0.00000000   0.00000000   0.00007752            0.00        0.00       11.40


     Writing all to output data dir ./QE-outdir/li.save/ :
     XML data file, charge density, pseudopotentials, collected wavefunctions

     init_run     :      0.04s CPU      0.05s WALL (       1 calls)
     electrons    :      0.12s CPU      0.21s WALL (       1 calls)
     forces       :      0.00s CPU      0.00s WALL (       1 calls)
     stress       :      0.02s CPU      0.02s WALL (       1 calls)

     Called by init_run:
     wfcinit      :      0.03s CPU      0.04s WALL (       1 calls)
     potinit      :      0.00s CPU      0.00s WALL (       1 calls)
     hinit0       :      0.01s CPU      0.01s WALL (       1 calls)

     Called by electrons:
     c_bands      :      0.11s CPU      0.20s WALL (       4 calls)
     sum_band     :      0.01s CPU      0.01s WALL (       4 calls)
     v_of_rho     :      0.00s CPU      0.00s WALL (       4 calls)
     mix_rho      :      0.00s CPU      0.00s WALL (       4 calls)

     Called by c_bands:
     init_us_2    :      0.01s CPU      0.01s WALL (     484 calls)
     cegterg      :      0.11s CPU      0.19s WALL (     176 calls)

     Called by *egterg:
     cdiaghg      :      0.07s CPU      0.16s WALL (     603 calls)
     h_psi        :      0.05s CPU      0.05s WALL (     691 calls)
     g_psi        :      0.00s CPU      0.00s WALL (     471 calls)

     Called by h_psi:
     h_psi:calbec :      0.00s CPU      0.00s WALL (     691 calls)
     vloc_psi     :      0.05s CPU      0.05s WALL (     691 calls)
                                        0.00s GPU  (     691 calls)
     add_vuspsi   :      0.00s CPU      0.00s WALL (     691 calls)

     General routines
     calbec       :      0.01s CPU      0.01s WALL (    1439 calls)
     fft          :      0.00s CPU      0.00s WALL (      20 calls)
     ffts         :      0.00s CPU      0.00s WALL (       4 calls)
     fftw         :      0.04s CPU      0.04s WALL (    7206 calls)

     Parallel routines

     PWSCF        :      0.19s CPU      0.30s WALL


   This run was terminated on:  23:30:51  31Jan2026            

=------------------------------------------------------------------------------=
   JOB DONE.
=------------------------------------------------------------------------------=
