
     Program PWSCF v.7.5 starts on 31Jan2026 at 23:30:56 

     This program is part of the open-source Quantum ESPRESSO suite
     for quantum simulation of materials; please cite
         "P. Giannozzi et al., J. Phys.:Condens. Matter 21 395502 (2009);
         "P. Giannozzi et al., J. Phys.:Condens. Matter 29 465901 (2017);
         "P. Giannozzi et al., J. Chem. Phys. 152 154105 (2020);
          URL http://www.quantum-espresso.org", 
     in publications or presentations arising from this work. More details at
     http://www.quantum-espresso.org/quote

     Parallel version (MPI), running on     1 processors

     MPI processes distributed on     1 nodes
     0 MiB available memory on the printing compute node when the environment starts

     Waiting for input...
     Reading input from standard input
     Message from routine read_cards :
     DEPRECATED: no units specified in ATOMIC_POSITIONS card
     Message from routine read_cards :
     ATOMIC_POSITIONS: units set to alat

     Current dimensions of program PWSCF are:
     Max number of different atomic species (ntypx) = 10
     Max number of k-points (npk) =  40000
     Max angular momentum in pseudopotentials (lmaxx) =  4
     file Li.pbe-mt_fhi.UPF: wavefunction(s)  2p 4f renormalized

     IMPORTANT: XC functional enforced from input :
     Exchange-correlation= PZ
                           (   1   1   0   0   0   0   0)
     Any further DFT definition will be discarded
     Please, verify this is what you really want


     Subspace diagonalization in iterative solution of the eigenvalue problem:
     a serial algorithm will be used


     G-vector sticks info
     --------------------
     sticks:   dense  smooth     PW     G-vecs:    dense   smooth      PW
     Sum         173     173     63                 1505     1505     321

     Using Slab Decomposition



     bravais-lattice index     =            3
     lattice parameter (alat)  =       6.3600  a.u.
     unit-cell volume          =     128.6297 (a.u.)^3
     number of atoms/cell      =            1
     number of atomic types    =            1
     number of electrons       =         1.00
     number of Kohn-Sham states=            5
     kinetic-energy cutoff     =      20.0000  Ry
     charge density cutoff     =      80.0000  Ry
     scf convergence threshold =      1.0E-08
     mixing beta               =       0.7000
     number of iterations used =            8  plain     mixing
     Exchange-correlation= PZ
                           (   1   1   0   0   0   0   0)

     celldm(1)=   6.360000  celldm(2)=   0.000000  celldm(3)=   0.000000
     celldm(4)=   0.000000  celldm(5)=   0.000000  celldm(6)=   0.000000

     crystal axes: (cart. coord. in units of alat)
               a(1) = (   0.500000   0.500000   0.500000 )  
               a(2) = (  -0.500000   0.500000   0.500000 )  
               a(3) = (  -0.500000  -0.500000   0.500000 )  

     reciprocal axes: (cart. coord. in units 2 pi/alat)
               b(1) = (  1.000000  0.000000  1.000000 )  
               b(2) = ( -1.000000  1.000000  0.000000 )  
               b(3) = (  0.000000 -1.000000  1.000000 )  


     PseudoPot. # 1 for Li read from file:
     ./pseudopot/Li.pbe-mt_fhi.UPF
     MD5 check sum: 3419f5616d131090147e867976aae79b
     Pseudo is Norm-conserving + core correction, Zval =  1.0
     Generated using FHI98PP, converted with fhi2upf.x v.5.0.2
     Using radial grid of  433 points,  3 beta functions with: 
                l(1) =   0
                l(2) =   1
                l(3) =   3

     atomic species   valence    mass     pseudopotential
     Li                1.00     6.94000     Li( 1.00)

     48 Sym. Ops., with inversion, found



   Cartesian axes

     site n.     atom                  positions (alat units)
         1        Li     tau(   1) = (   0.0000000   0.0000000   0.0000000  )

     number of k points=    44  Methfessel-Paxton smearing, width (Ry)=  0.0100
                       cart. coord. in units 2pi/alat
        k(    1) = (   0.0000000   0.0000000   0.1000000), wk =   0.0120000
        k(    2) = (   0.0000000  -0.1000000   0.2000000), wk =   0.0480000
        k(    3) = (   0.0000000  -0.2000000   0.3000000), wk =   0.0480000
        k(    4) = (   0.0000000  -0.3000000   0.4000000), wk =   0.0480000
        k(    5) = (   0.0000000  -0.4000000   0.5000000), wk =   0.0480000
        k(    6) = (  -0.1000000   0.1000000   0.1000000), wk =   0.0160000
        k(    7) = (  -0.1000000  -0.1000000   0.3000000), wk =   0.0480000
        k(    8) = (  -0.1000000  -0.2000000   0.4000000), wk =   0.0960000
        k(    9) = (  -0.1000000  -0.3000000   0.5000000), wk =   0.0960000
        k(   10) = (  -0.1000000   0.6000000  -0.4000000), wk =   0.0480000
        k(   11) = (  -0.2000000   0.2000000   0.1000000), wk =   0.0480000
        k(   12) = (  -0.2000000  -0.2000000   0.5000000), wk =   0.0480000
        k(   13) = (  -0.2000000   0.7000000  -0.4000000), wk =   0.0960000
        k(   14) = (  -0.3000000   0.3000000   0.1000000), wk =   0.0480000
        k(   15) = (  -0.3000000   0.2000000   0.2000000), wk =   0.0480000
        k(   16) = (  -0.3000000   0.7000000  -0.3000000), wk =   0.0160000
        k(   17) = (  -0.4000000   0.4000000   0.1000000), wk =   0.0480000
        k(   18) = (  -0.4000000   0.3000000   0.2000000), wk =   0.0960000
        k(   19) = (   0.5000000  -0.5000000   0.1000000), wk =   0.0240000
        k(   20) = (   0.5000000  -0.6000000   0.2000000), wk =   0.0960000
        k(   21) = (   0.5000000  -0.7000000   0.3000000), wk =   0.0480000
        k(   22) = (   0.4000000  -0.6000000   0.3000000), wk =   0.0480000
        k(   23) = (   0.0000000   0.0000000   0.3000000), wk =   0.0120000
        k(   24) = (   0.0000000  -0.1000000   0.4000000), wk =   0.0480000
        k(   25) = (   0.0000000  -0.2000000   0.5000000), wk =   0.0480000
        k(   26) = (   0.0000000  -0.3000000   0.6000000), wk =   0.0480000
        k(   27) = (  -0.1000000  -0.1000000   0.5000000), wk =   0.0480000
        k(   28) = (  -0.1000000  -0.2000000   0.6000000), wk =   0.0960000
        k(   29) = (  -0.1000000   0.7000000  -0.3000000), wk =   0.0480000
        k(   30) = (  -0.2000000   0.8000000  -0.3000000), wk =   0.0480000
        k(   31) = (  -0.3000000   0.3000000   0.3000000), wk =   0.0160000
        k(   32) = (   0.6000000  -0.6000000   0.3000000), wk =   0.0480000
        k(   33) = (   0.5000000  -0.5000000   0.3000000), wk =   0.0240000
        k(   34) = (   0.5000000  -0.6000000   0.4000000), wk =   0.0480000
        k(   35) = (   0.0000000   0.0000000   0.5000000), wk =   0.0120000
        k(   36) = (   0.0000000  -0.1000000   0.6000000), wk =   0.0480000
        k(   37) = (   0.0000000  -0.2000000   0.7000000), wk =   0.0480000
        k(   38) = (  -0.1000000  -0.1000000   0.7000000), wk =   0.0480000
        k(   39) = (  -0.1000000   0.8000000  -0.2000000), wk =   0.0480000
        k(   40) = (   0.5000000  -0.5000000   0.5000000), wk =   0.0040000
        k(   41) = (   0.0000000   0.0000000   0.7000000), wk =   0.0120000
        k(   42) = (   0.0000000  -0.1000000   0.8000000), wk =   0.0480000
        k(   43) = (  -0.1000000   0.9000000  -0.1000000), wk =   0.0160000
        k(   44) = (   0.0000000   0.0000000   0.9000000), wk =   0.0120000

     Dense  grid:     1505 G-vectors     FFT dimensions: (  15,  15,  15)

     Estimated max dynamical RAM per process >       1.91 MB

     Initial potential from superposition of free atoms

     starting charge       0.9960, renormalised to       1.0000
     Starting wfcs are   16 randomized atomic wfcs

     total cpu time spent up to now is        0.1 secs

     Self-consistent Calculation

     iteration #  1     ecut=    20.00 Ry     beta= 0.70
     Davidson diagonalization with overlap
     ethr =  1.00E-02,  avg # of iterations =  4.4

     Threshold (ethr) on eigenvalues was too large:
     Diagonalizing with lowered threshold

     Davidson diagonalization with overlap
     ethr =  2.02E-05,  avg # of iterations =  3.5

     total cpu time spent up to now is        0.2 secs

     total energy              =      -0.68951723 Ry
     estimated scf accuracy    <       0.00020134 Ry

     iteration #  2     ecut=    20.00 Ry     beta= 0.70
     Davidson diagonalization with overlap
     ethr =  2.01E-05,  avg # of iterations =  1.0

     total cpu time spent up to now is        0.2 secs

     total energy              =      -0.68951461 Ry
     estimated scf accuracy    <       0.00001748 Ry

     iteration #  3     ecut=    20.00 Ry     beta= 0.70
     Davidson diagonalization with overlap
     ethr =  1.75E-06,  avg # of iterations =  1.8

     total cpu time spent up to now is        0.3 secs

     End of self-consistent calculation

          k = 0.0000 0.0000 0.1000 (   197 PWs)   bands (ev):

    -3.0169  15.1369  15.1369  15.4361  19.4190

          k = 0.0000-0.1000 0.2000 (   196 PWs)   bands (ev):

    -2.6240  12.8489  13.7565  14.8812  17.6697

          k = 0.0000-0.2000 0.3000 (   192 PWs)   bands (ev):

    -1.8406   9.6043  12.4036  14.0354  16.8865

          k = 0.0000-0.3000 0.4000 (   190 PWs)   bands (ev):

    -0.6967   6.6320  11.4428  13.2930  15.8490

          k = 0.0000-0.4000 0.5000 (   190 PWs)   bands (ev):

     0.5716   4.4213  10.9523  12.8860  15.3273

          k =-0.1000 0.1000 0.1000 (   198 PWs)   bands (ev):

    -2.8209  14.1165  14.4831  14.4831  18.6880

          k =-0.1000-0.1000 0.3000 (   189 PWs)   bands (ev):

    -2.0328  11.0300  11.6430  14.1688  16.7546

          k =-0.1000-0.2000 0.4000 (   192 PWs)   bands (ev):

    -1.0547   8.1058  10.3761  13.3612  16.7634

          k =-0.1000-0.3000 0.5000 (   191 PWs)   bands (ev):

     0.2392   5.4625   9.6713  12.7578  16.8393

          k =-0.1000 0.6000-0.4000 (   195 PWs)   bands (ev):

     1.1841   4.0550   9.4356  12.5430  16.7796

          k =-0.2000 0.2000 0.1000 (   195 PWs)   bands (ev):

    -2.2328  11.2721  12.9004  13.2317  18.1547

          k =-0.2000-0.2000 0.5000 (   192 PWs)   bands (ev):

     0.1132   6.3492   8.4926  12.8624  17.0137

          k =-0.2000 0.7000-0.4000 (   197 PWs)   bands (ev):

     1.5153   4.3661   7.7575  12.5575  17.5612

          k =-0.3000 0.3000 0.1000 (   190 PWs)   bands (ev):

    -1.2610   8.0678  11.8693  12.1352  17.4077

          k =-0.3000 0.2000 0.2000 (   187 PWs)   bands (ev):

    -1.4490   9.4128  10.4814  11.9910  19.0418

          k =-0.3000 0.7000-0.3000 (   197 PWs)   bands (ev):

     3.0035   3.0035   7.0131  12.4945  18.8908

          k =-0.4000 0.4000 0.1000 (   188 PWs)   bands (ev):

     0.0157   5.3862  11.2212  11.4348  16.8066

          k =-0.4000 0.3000 0.2000 (   191 PWs)   bands (ev):

    -0.2905   6.6918   9.3147  11.2652  19.1503

          k = 0.5000-0.5000 0.1000 (   188 PWs)   bands (ev):

     0.9250   4.0014  11.0011  11.1965  16.5898

          k = 0.5000-0.6000 0.2000 (   195 PWs)   bands (ev):

     1.0510   4.4485   8.8123  10.8927  18.9981

          k = 0.5000-0.7000 0.3000 (   196 PWs)   bands (ev):

     1.0456   5.0850   7.5553  10.8368  20.5848

          k = 0.4000-0.6000 0.3000 (   197 PWs)   bands (ev):

     2.2301   3.6938   7.0726  10.6915  20.6999

          k = 0.0000 0.0000 0.3000 (   201 PWs)   bands (ev):

    -2.2265  12.2384  12.2384  14.3785  15.1802

          k = 0.0000-0.1000 0.4000 (   192 PWs)   bands (ev):

    -1.4326   9.7202  10.8274  13.7705  14.6797

          k = 0.0000-0.2000 0.5000 (   192 PWs)   bands (ev):

    -0.2671   6.8539   9.8410  13.1189  15.5143

          k = 0.0000-0.3000 0.6000 (   199 PWs)   bands (ev):

     1.0595   4.6185   9.3401  12.7705  16.5929

          k =-0.1000-0.1000 0.5000 (   195 PWs)   bands (ev):

    -0.4368   8.0377   9.1151  13.8310  13.8515

          k =-0.1000-0.2000 0.6000 (   196 PWs)   bands (ev):

     0.9027   5.7004   8.2381  13.3200  14.8715

          k =-0.1000 0.7000-0.3000 (   200 PWs)   bands (ev):

     1.9589   4.2413   7.9818  13.1382  15.8202

          k =-0.2000 0.8000-0.3000 (   201 PWs)   bands (ev):

     2.3798   4.2777   7.1005  13.9584  15.0588

          k =-0.3000 0.3000 0.3000 (   186 PWs)   bands (ev):

    -0.4712   8.1785   8.1785  10.5385  20.7399

          k = 0.6000-0.6000 0.3000 (   190 PWs)   bands (ev):

     0.8664   5.5873   7.4232  10.0150  21.5729

          k = 0.5000-0.5000 0.3000 (   194 PWs)   bands (ev):

     1.9715   4.0368   7.1698   9.8564  21.7672

          k = 0.5000-0.6000 0.4000 (   192 PWs)   bands (ev):

     2.3696   4.3168   5.9595   9.6368  23.0071

          k = 0.0000 0.0000 0.5000 (   201 PWs)   bands (ev):

    -0.6182   9.3920   9.3920  11.9974  13.6914

          k = 0.0000-0.1000 0.6000 (   197 PWs)   bands (ev):

     0.5864   7.2874   8.3961  11.7680  13.7405

          k = 0.0000-0.2000 0.7000 (   200 PWs)   bands (ev):

     2.0205   5.0734   7.8912  12.0043  14.6737

          k =-0.1000-0.1000 0.7000 (   197 PWs)   bands (ev):

     1.9809   5.9899   7.2868  11.7983  13.6579

          k =-0.1000 0.8000-0.2000 (   204 PWs)   bands (ev):

     3.2368   4.5844   6.9275  12.3000  14.0437

          k = 0.5000-0.5000 0.5000 (   180 PWs)   bands (ev):

     4.0599   4.0599   4.0599   9.3361  25.1809

          k = 0.0000 0.0000 0.7000 (   204 PWs)   bands (ev):

     1.8458   7.3951   7.3951   9.8748  13.2195

          k = 0.0000-0.1000 0.8000 (   204 PWs)   bands (ev):

     3.4099   5.8234   6.8885  10.2136  12.4572

          k =-0.1000 0.9000-0.1000 (   206 PWs)   bands (ev):

     4.9571   4.9571   6.4164  10.7596  10.7596

          k = 0.0000 0.0000 0.9000 (   196 PWs)   bands (ev):

     5.0838   6.3819   6.3819   8.8134  10.0324

     the Fermi energy is     0.6162 ev

!    total energy              =      -0.68951466 Ry
     estimated scf accuracy    <          2.0E-10 Ry
     smearing contrib. (-TS)   =      -0.00007729 Ry
     internal energy E=F+TS    =      -0.68943737 Ry

     The total energy is F=E-TS. E is the sum of the following terms:
     one-electron contribution =       0.43214536 Ry
     hartree contribution      =       0.00110040 Ry
     xc contribution           =      -0.55047657 Ry
     ewald contribution        =      -0.57220656 Ry

     convergence has been achieved in   3 iterations

     Forces acting on atoms (cartesian axes, Ry/au):

     atom    1 type  1   force =     0.00000000    0.00000000    0.00000000

     Total force =     0.000000     Total SCF correction =     0.000000


     Computing stress (Cartesian axis) and pressure

          total   stress  (Ry/bohr**3)                   (kbar)     P=       -3.48
  -0.00002365  -0.00000000   0.00000000           -3.48       -0.00        0.00
  -0.00000000  -0.00002365  -0.00000000           -0.00       -3.48       -0.00
   0.00000000  -0.00000000  -0.00002365            0.00       -0.00       -3.48


     Writing all to output data dir ./QE-outdir/li.save/ :
     XML data file, charge density, pseudopotentials, collected wavefunctions

     init_run     :      0.04s CPU      0.05s WALL (       1 calls)
     electrons    :      0.13s CPU      0.22s WALL (       1 calls)
     forces       :      0.00s CPU      0.00s WALL (       1 calls)
     stress       :      0.02s CPU      0.02s WALL (       1 calls)

     Called by init_run:
     wfcinit      :      0.03s CPU      0.04s WALL (       1 calls)
     potinit      :      0.00s CPU      0.00s WALL (       1 calls)
     hinit0       :      0.01s CPU      0.01s WALL (       1 calls)

     Called by electrons:
     c_bands      :      0.12s CPU      0.20s WALL (       4 calls)
     sum_band     :      0.01s CPU      0.01s WALL (       4 calls)
     v_of_rho     :      0.00s CPU      0.00s WALL (       4 calls)
     mix_rho      :      0.00s CPU      0.00s WALL (       4 calls)

     Called by c_bands:
     init_us_2    :      0.01s CPU      0.01s WALL (     484 calls)
     cegterg      :      0.11s CPU      0.20s WALL (     176 calls)

     Called by *egterg:
     cdiaghg      :      0.07s CPU      0.16s WALL (     604 calls)
     h_psi        :      0.05s CPU      0.06s WALL (     692 calls)
     g_psi        :      0.00s CPU      0.00s WALL (     472 calls)

     Called by h_psi:
     h_psi:calbec :      0.00s CPU      0.00s WALL (     692 calls)
     vloc_psi     :      0.05s CPU      0.05s WALL (     692 calls)
                                        0.00s GPU  (     692 calls)
     add_vuspsi   :      0.00s CPU      0.00s WALL (     692 calls)

     General routines
     calbec       :      0.01s CPU      0.01s WALL (    1440 calls)
     fft          :      0.00s CPU      0.00s WALL (      20 calls)
     ffts         :      0.00s CPU      0.00s WALL (       4 calls)
     fftw         :      0.04s CPU      0.05s WALL (    7266 calls)

     Parallel routines

     PWSCF        :      0.20s CPU      0.31s WALL


   This run was terminated on:  23:30:56  31Jan2026            

=------------------------------------------------------------------------------=
   JOB DONE.
=------------------------------------------------------------------------------=
