
     Program PWSCF v.7.5 starts on 31Jan2026 at 23:30:58 

     This program is part of the open-source Quantum ESPRESSO suite
     for quantum simulation of materials; please cite
         "P. Giannozzi et al., J. Phys.:Condens. Matter 21 395502 (2009);
         "P. Giannozzi et al., J. Phys.:Condens. Matter 29 465901 (2017);
         "P. Giannozzi et al., J. Chem. Phys. 152 154105 (2020);
          URL http://www.quantum-espresso.org", 
     in publications or presentations arising from this work. More details at
     http://www.quantum-espresso.org/quote

     Parallel version (MPI), running on     1 processors

     MPI processes distributed on     1 nodes
     0 MiB available memory on the printing compute node when the environment starts

     Waiting for input...
     Reading input from standard input
     Message from routine read_cards :
     DEPRECATED: no units specified in ATOMIC_POSITIONS card
     Message from routine read_cards :
     ATOMIC_POSITIONS: units set to alat

     Current dimensions of program PWSCF are:
     Max number of different atomic species (ntypx) = 10
     Max number of k-points (npk) =  40000
     Max angular momentum in pseudopotentials (lmaxx) =  4
     file Li.pbe-mt_fhi.UPF: wavefunction(s)  2p 4f renormalized

     IMPORTANT: XC functional enforced from input :
     Exchange-correlation= PZ
                           (   1   1   0   0   0   0   0)
     Any further DFT definition will be discarded
     Please, verify this is what you really want


     Subspace diagonalization in iterative solution of the eigenvalue problem:
     a serial algorithm will be used


     G-vector sticks info
     --------------------
     sticks:   dense  smooth     PW     G-vecs:    dense   smooth      PW
     Sum         181     181     67                 1553     1553     369

     Using Slab Decomposition



     bravais-lattice index     =            3
     lattice parameter (alat)  =       6.4200  a.u.
     unit-cell volume          =     132.3046 (a.u.)^3
     number of atoms/cell      =            1
     number of atomic types    =            1
     number of electrons       =         1.00
     number of Kohn-Sham states=            5
     kinetic-energy cutoff     =      20.0000  Ry
     charge density cutoff     =      80.0000  Ry
     scf convergence threshold =      1.0E-08
     mixing beta               =       0.7000
     number of iterations used =            8  plain     mixing
     Exchange-correlation= PZ
                           (   1   1   0   0   0   0   0)

     celldm(1)=   6.420000  celldm(2)=   0.000000  celldm(3)=   0.000000
     celldm(4)=   0.000000  celldm(5)=   0.000000  celldm(6)=   0.000000

     crystal axes: (cart. coord. in units of alat)
               a(1) = (   0.500000   0.500000   0.500000 )  
               a(2) = (  -0.500000   0.500000   0.500000 )  
               a(3) = (  -0.500000  -0.500000   0.500000 )  

     reciprocal axes: (cart. coord. in units 2 pi/alat)
               b(1) = (  1.000000  0.000000  1.000000 )  
               b(2) = ( -1.000000  1.000000  0.000000 )  
               b(3) = (  0.000000 -1.000000  1.000000 )  


     PseudoPot. # 1 for Li read from file:
     ./pseudopot/Li.pbe-mt_fhi.UPF
     MD5 check sum: 3419f5616d131090147e867976aae79b
     Pseudo is Norm-conserving + core correction, Zval =  1.0
     Generated using FHI98PP, converted with fhi2upf.x v.5.0.2
     Using radial grid of  433 points,  3 beta functions with: 
                l(1) =   0
                l(2) =   1
                l(3) =   3

     atomic species   valence    mass     pseudopotential
     Li                1.00     6.94000     Li( 1.00)

     48 Sym. Ops., with inversion, found



   Cartesian axes

     site n.     atom                  positions (alat units)
         1        Li     tau(   1) = (   0.0000000   0.0000000   0.0000000  )

     number of k points=    44  Methfessel-Paxton smearing, width (Ry)=  0.0100
                       cart. coord. in units 2pi/alat
        k(    1) = (   0.0000000   0.0000000   0.1000000), wk =   0.0120000
        k(    2) = (   0.0000000  -0.1000000   0.2000000), wk =   0.0480000
        k(    3) = (   0.0000000  -0.2000000   0.3000000), wk =   0.0480000
        k(    4) = (   0.0000000  -0.3000000   0.4000000), wk =   0.0480000
        k(    5) = (   0.0000000  -0.4000000   0.5000000), wk =   0.0480000
        k(    6) = (  -0.1000000   0.1000000   0.1000000), wk =   0.0160000
        k(    7) = (  -0.1000000  -0.1000000   0.3000000), wk =   0.0480000
        k(    8) = (  -0.1000000  -0.2000000   0.4000000), wk =   0.0960000
        k(    9) = (  -0.1000000  -0.3000000   0.5000000), wk =   0.0960000
        k(   10) = (  -0.1000000   0.6000000  -0.4000000), wk =   0.0480000
        k(   11) = (  -0.2000000   0.2000000   0.1000000), wk =   0.0480000
        k(   12) = (  -0.2000000  -0.2000000   0.5000000), wk =   0.0480000
        k(   13) = (  -0.2000000   0.7000000  -0.4000000), wk =   0.0960000
        k(   14) = (  -0.3000000   0.3000000   0.1000000), wk =   0.0480000
        k(   15) = (  -0.3000000   0.2000000   0.2000000), wk =   0.0480000
        k(   16) = (  -0.3000000   0.7000000  -0.3000000), wk =   0.0160000
        k(   17) = (  -0.4000000   0.4000000   0.1000000), wk =   0.0480000
        k(   18) = (  -0.4000000   0.3000000   0.2000000), wk =   0.0960000
        k(   19) = (   0.5000000  -0.5000000   0.1000000), wk =   0.0240000
        k(   20) = (   0.5000000  -0.6000000   0.2000000), wk =   0.0960000
        k(   21) = (   0.5000000  -0.7000000   0.3000000), wk =   0.0480000
        k(   22) = (   0.4000000  -0.6000000   0.3000000), wk =   0.0480000
        k(   23) = (   0.0000000   0.0000000   0.3000000), wk =   0.0120000
        k(   24) = (   0.0000000  -0.1000000   0.4000000), wk =   0.0480000
        k(   25) = (   0.0000000  -0.2000000   0.5000000), wk =   0.0480000
        k(   26) = (   0.0000000  -0.3000000   0.6000000), wk =   0.0480000
        k(   27) = (  -0.1000000  -0.1000000   0.5000000), wk =   0.0480000
        k(   28) = (  -0.1000000  -0.2000000   0.6000000), wk =   0.0960000
        k(   29) = (  -0.1000000   0.7000000  -0.3000000), wk =   0.0480000
        k(   30) = (  -0.2000000   0.8000000  -0.3000000), wk =   0.0480000
        k(   31) = (  -0.3000000   0.3000000   0.3000000), wk =   0.0160000
        k(   32) = (   0.6000000  -0.6000000   0.3000000), wk =   0.0480000
        k(   33) = (   0.5000000  -0.5000000   0.3000000), wk =   0.0240000
        k(   34) = (   0.5000000  -0.6000000   0.4000000), wk =   0.0480000
        k(   35) = (   0.0000000   0.0000000   0.5000000), wk =   0.0120000
        k(   36) = (   0.0000000  -0.1000000   0.6000000), wk =   0.0480000
        k(   37) = (   0.0000000  -0.2000000   0.7000000), wk =   0.0480000
        k(   38) = (  -0.1000000  -0.1000000   0.7000000), wk =   0.0480000
        k(   39) = (  -0.1000000   0.8000000  -0.2000000), wk =   0.0480000
        k(   40) = (   0.5000000  -0.5000000   0.5000000), wk =   0.0040000
        k(   41) = (   0.0000000   0.0000000   0.7000000), wk =   0.0120000
        k(   42) = (   0.0000000  -0.1000000   0.8000000), wk =   0.0480000
        k(   43) = (  -0.1000000   0.9000000  -0.1000000), wk =   0.0160000
        k(   44) = (   0.0000000   0.0000000   0.9000000), wk =   0.0120000

     Dense  grid:     1553 G-vectors     FFT dimensions: (  15,  15,  15)

     Estimated max dynamical RAM per process >       1.95 MB

     Initial potential from superposition of free atoms

     starting charge       0.9960, renormalised to       1.0000
     Starting wfcs are   16 randomized atomic wfcs

     total cpu time spent up to now is        0.1 secs

     Self-consistent Calculation

     iteration #  1     ecut=    20.00 Ry     beta= 0.70
     Davidson diagonalization with overlap
     ethr =  1.00E-02,  avg # of iterations =  4.6

     Threshold (ethr) on eigenvalues was too large:
     Diagonalizing with lowered threshold

     Davidson diagonalization with overlap
     ethr =  1.90E-05,  avg # of iterations =  3.4

     total cpu time spent up to now is        0.2 secs

     total energy              =      -0.68938911 Ry
     estimated scf accuracy    <       0.00018941 Ry

     iteration #  2     ecut=    20.00 Ry     beta= 0.70
     Davidson diagonalization with overlap
     ethr =  1.89E-05,  avg # of iterations =  1.0

     total cpu time spent up to now is        0.2 secs

     total energy              =      -0.68938671 Ry
     estimated scf accuracy    <       0.00001645 Ry

     iteration #  3     ecut=    20.00 Ry     beta= 0.70
     Davidson diagonalization with overlap
     ethr =  1.64E-06,  avg # of iterations =  1.5

     total cpu time spent up to now is        0.3 secs

     End of self-consistent calculation

          k = 0.0000 0.0000 0.1000 (   201 PWs)   bands (ev):

    -3.0563  14.7740  14.7740  15.0623  19.0134

          k = 0.0000-0.1000 0.2000 (   202 PWs)   bands (ev):

    -2.6674  12.5358  13.4247  14.5229  17.2866

          k = 0.0000-0.2000 0.3000 (   193 PWs)   bands (ev):

    -1.8920   9.3536  12.1007  13.6990  16.5210

          k = 0.0000-0.3000 0.4000 (   194 PWs)   bands (ev):

    -0.7595   6.4306  11.1589  12.9739  15.5029

          k = 0.0000-0.4000 0.5000 (   197 PWs)   bands (ev):

     0.5009   4.2469  10.6777  12.5757  14.9909

          k =-0.1000 0.1000 0.1000 (   198 PWs)   bands (ev):

    -2.8622  13.7698  14.1401  14.1401  18.2826

          k =-0.1000-0.1000 0.3000 (   199 PWs)   bands (ev):

    -2.0825  10.7622  11.3454  13.8268  16.3881

          k =-0.1000-0.2000 0.4000 (   197 PWs)   bands (ev):

    -1.1148   7.8879  10.1043  13.0399  16.3920

          k =-0.1000-0.3000 0.5000 (   200 PWs)   bands (ev):

     0.1664   5.2840   9.4130  12.4501  16.4580

          k =-0.1000 0.6000-0.4000 (   197 PWs)   bands (ev):

     1.1079   3.8895   9.1823  12.2404  16.3978

          k =-0.2000 0.2000 0.1000 (   197 PWs)   bands (ev):

    -2.2801  10.9925  12.5791  12.9201  17.7544

          k =-0.2000-0.2000 0.5000 (   199 PWs)   bands (ev):

     0.0397   6.1746   8.2375  12.5518  16.6416

          k =-0.2000 0.7000-0.4000 (   200 PWs)   bands (ev):

     1.4275   4.2207   7.5127  12.2534  17.1726

          k =-0.3000 0.3000 0.1000 (   194 PWs)   bands (ev):

    -1.3184   7.8457  11.5657  11.8477  17.0242

          k =-0.3000 0.2000 0.2000 (   198 PWs)   bands (ev):

    -1.5048   9.1792  10.2070  11.6867  18.6136

          k =-0.3000 0.7000-0.3000 (   203 PWs)   bands (ev):

     2.8927   2.8927   6.7674  12.1905  18.4838

          k =-0.4000 0.4000 0.1000 (   193 PWs)   bands (ev):

    -0.0532   5.2044  10.9297  11.1619  16.4362

          k =-0.4000 0.3000 0.2000 (   193 PWs)   bands (ev):

    -0.3586   6.5024   9.0657  10.9702  18.7221

          k = 0.5000-0.5000 0.1000 (   192 PWs)   bands (ev):

     0.8537   3.8318  10.7140  10.9285  16.2241

          k = 0.5000-0.6000 0.2000 (   199 PWs)   bands (ev):

     0.9716   4.2883   8.5743  10.6016  18.5742

          k = 0.5000-0.7000 0.3000 (   201 PWs)   bands (ev):

     0.9618   4.9351   7.3239  10.5424  20.1395

          k = 0.4000-0.6000 0.3000 (   204 PWs)   bands (ev):

     2.1342   3.5636   6.8472  10.3969  20.2382

          k = 0.0000 0.0000 0.3000 (   201 PWs)   bands (ev):

    -2.2742  11.9414  11.9414  14.0161  14.8535

          k = 0.0000-0.1000 0.4000 (   198 PWs)   bands (ev):

    -1.4892   9.4719  10.5585  13.4288  14.3457

          k = 0.0000-0.2000 0.5000 (   195 PWs)   bands (ev):

    -0.3363   6.6541   9.5921  12.7887  15.1624

          k = 0.0000-0.3000 0.6000 (   205 PWs)   bands (ev):

     0.9797   4.4482   9.1006  12.4449  16.2166

          k =-0.1000-0.1000 0.5000 (   199 PWs)   bands (ev):

    -0.5052   7.8293   8.8671  13.4770  13.5427

          k =-0.1000-0.2000 0.6000 (   205 PWs)   bands (ev):

     0.8190   5.5289   8.0041  12.9886  14.5315

          k =-0.1000 0.7000-0.3000 (   202 PWs)   bands (ev):

     1.8680   4.0850   7.7529  12.8096  15.4616

          k =-0.2000 0.8000-0.3000 (   202 PWs)   bands (ev):

     2.2771   4.1428   6.8667  13.6112  14.7258

          k =-0.3000 0.3000 0.3000 (   192 PWs)   bands (ev):

    -0.5379   7.9694   7.9694  10.2272  20.2781

          k = 0.6000-0.6000 0.3000 (   198 PWs)   bands (ev):

     0.7844   5.4219   7.2290   9.7037  21.3820

          k = 0.5000-0.5000 0.3000 (   198 PWs)   bands (ev):

     1.8805   3.8902   6.9805   9.5461  21.2884

          k = 0.5000-0.6000 0.4000 (   199 PWs)   bands (ev):

     2.2676   4.1815   5.7853   9.3212  22.4955

          k = 0.0000 0.0000 0.5000 (   201 PWs)   bands (ev):

    -0.6850   9.1524   9.1524  11.7299  13.3217

          k = 0.0000-0.1000 0.6000 (   202 PWs)   bands (ev):

     0.5042   7.0870   8.1756  11.4944  13.3720

          k = 0.0000-0.2000 0.7000 (   204 PWs)   bands (ev):

     1.9226   4.9055   7.6807  11.7021  14.3128

          k =-0.1000-0.1000 0.7000 (   203 PWs)   bands (ev):

     1.8797   5.8208   7.0744  11.5286  13.2927

          k =-0.1000 0.8000-0.2000 (   208 PWs)   bands (ev):

     3.1214   4.4354   6.7183  12.0091  13.7301

          k = 0.5000-0.5000 0.5000 (   216 PWs)   bands (ev):

     3.9288   3.9288   3.9288   9.0098  24.6182

          k = 0.0000 0.0000 0.7000 (   204 PWs)   bands (ev):

     1.7446   7.1944   7.1944   9.6468  12.8548

          k = 0.0000-0.1000 0.8000 (   208 PWs)   bands (ev):

     3.2862   5.6506   6.6975   9.9718  12.1583

          k =-0.1000 0.9000-0.1000 (   212 PWs)   bands (ev):

     4.8076   4.8076   6.2242  10.5095  10.5095

          k = 0.0000 0.0000 0.9000 (   212 PWs)   bands (ev):

     4.9289   6.1997   6.1997   8.6052   9.7948

     the Fermi energy is     0.5399 ev

!    total energy              =      -0.68938676 Ry
     estimated scf accuracy    <          3.0E-10 Ry
     smearing contrib. (-TS)   =      -0.00007425 Ry
     internal energy E=F+TS    =      -0.68931251 Ry

     The total energy is F=E-TS. E is the sum of the following terms:
     one-electron contribution =       0.42323164 Ry
     hartree contribution      =       0.00105092 Ry
     xc contribution           =      -0.54673623 Ry
     ewald contribution        =      -0.56685884 Ry

     convergence has been achieved in   3 iterations

     Forces acting on atoms (cartesian axes, Ry/au):

     atom    1 type  1   force =     0.00000000    0.00000000    0.00000000

     Total force =     0.000000     Total SCF correction =     0.000000


     Computing stress (Cartesian axis) and pressure

          total   stress  (Ry/bohr**3)                   (kbar)     P=       -7.24
  -0.00004921   0.00000000  -0.00000000           -7.24        0.00       -0.00
   0.00000000  -0.00004921   0.00000000            0.00       -7.24        0.00
  -0.00000000   0.00000000  -0.00004921           -0.00        0.00       -7.24


     Writing all to output data dir ./QE-outdir/li.save/ :
     XML data file, charge density, pseudopotentials, collected wavefunctions

     init_run     :      0.04s CPU      0.06s WALL (       1 calls)
     electrons    :      0.13s CPU      0.21s WALL (       1 calls)
     forces       :      0.00s CPU      0.00s WALL (       1 calls)
     stress       :      0.02s CPU      0.02s WALL (       1 calls)

     Called by init_run:
     wfcinit      :      0.03s CPU      0.04s WALL (       1 calls)
     potinit      :      0.00s CPU      0.00s WALL (       1 calls)
     hinit0       :      0.01s CPU      0.01s WALL (       1 calls)

     Called by electrons:
     c_bands      :      0.12s CPU      0.20s WALL (       4 calls)
     sum_band     :      0.01s CPU      0.01s WALL (       4 calls)
     v_of_rho     :      0.00s CPU      0.00s WALL (       4 calls)
     mix_rho      :      0.00s CPU      0.00s WALL (       4 calls)

     Called by c_bands:
     init_us_2    :      0.01s CPU      0.01s WALL (     484 calls)
     cegterg      :      0.11s CPU      0.19s WALL (     176 calls)

     Called by *egterg:
     cdiaghg      :      0.07s CPU      0.16s WALL (     592 calls)
     h_psi        :      0.05s CPU      0.06s WALL (     680 calls)
     g_psi        :      0.00s CPU      0.00s WALL (     460 calls)

     Called by h_psi:
     h_psi:calbec :      0.00s CPU      0.00s WALL (     680 calls)
     vloc_psi     :      0.05s CPU      0.05s WALL (     680 calls)
                                        0.00s GPU  (     680 calls)
     add_vuspsi   :      0.00s CPU      0.00s WALL (     680 calls)

     General routines
     calbec       :      0.01s CPU      0.01s WALL (    1428 calls)
     fft          :      0.00s CPU      0.00s WALL (      20 calls)
     ffts         :      0.00s CPU      0.00s WALL (       4 calls)
     fftw         :      0.04s CPU      0.05s WALL (    7250 calls)

     Parallel routines

     PWSCF        :      0.20s CPU      0.31s WALL


   This run was terminated on:  23:30:58  31Jan2026            

=------------------------------------------------------------------------------=
   JOB DONE.
=------------------------------------------------------------------------------=
