
     Program PWSCF v.7.5 starts on 31Jan2026 at 23:31: 0 

     This program is part of the open-source Quantum ESPRESSO suite
     for quantum simulation of materials; please cite
         "P. Giannozzi et al., J. Phys.:Condens. Matter 21 395502 (2009);
         "P. Giannozzi et al., J. Phys.:Condens. Matter 29 465901 (2017);
         "P. Giannozzi et al., J. Chem. Phys. 152 154105 (2020);
          URL http://www.quantum-espresso.org", 
     in publications or presentations arising from this work. More details at
     http://www.quantum-espresso.org/quote

     Parallel version (MPI), running on     1 processors

     MPI processes distributed on     1 nodes
     0 MiB available memory on the printing compute node when the environment starts

     Waiting for input...
     Reading input from standard input
     Message from routine read_cards :
     DEPRECATED: no units specified in ATOMIC_POSITIONS card
     Message from routine read_cards :
     ATOMIC_POSITIONS: units set to alat

     Current dimensions of program PWSCF are:
     Max number of different atomic species (ntypx) = 10
     Max number of k-points (npk) =  40000
     Max angular momentum in pseudopotentials (lmaxx) =  4
     file Li.pbe-mt_fhi.UPF: wavefunction(s)  2p 4f renormalized

     IMPORTANT: XC functional enforced from input :
     Exchange-correlation= PZ
                           (   1   1   0   0   0   0   0)
     Any further DFT definition will be discarded
     Please, verify this is what you really want


     Subspace diagonalization in iterative solution of the eigenvalue problem:
     a serial algorithm will be used


     G-vector sticks info
     --------------------
     sticks:   dense  smooth     PW     G-vecs:    dense   smooth      PW
     Sum         181     181     67                 1601     1601     369

     Using Slab Decomposition



     bravais-lattice index     =            3
     lattice parameter (alat)  =       6.4800  a.u.
     unit-cell volume          =     136.0489 (a.u.)^3
     number of atoms/cell      =            1
     number of atomic types    =            1
     number of electrons       =         1.00
     number of Kohn-Sham states=            5
     kinetic-energy cutoff     =      20.0000  Ry
     charge density cutoff     =      80.0000  Ry
     scf convergence threshold =      1.0E-08
     mixing beta               =       0.7000
     number of iterations used =            8  plain     mixing
     Exchange-correlation= PZ
                           (   1   1   0   0   0   0   0)

     celldm(1)=   6.480000  celldm(2)=   0.000000  celldm(3)=   0.000000
     celldm(4)=   0.000000  celldm(5)=   0.000000  celldm(6)=   0.000000

     crystal axes: (cart. coord. in units of alat)
               a(1) = (   0.500000   0.500000   0.500000 )  
               a(2) = (  -0.500000   0.500000   0.500000 )  
               a(3) = (  -0.500000  -0.500000   0.500000 )  

     reciprocal axes: (cart. coord. in units 2 pi/alat)
               b(1) = (  1.000000  0.000000  1.000000 )  
               b(2) = ( -1.000000  1.000000  0.000000 )  
               b(3) = (  0.000000 -1.000000  1.000000 )  


     PseudoPot. # 1 for Li read from file:
     ./pseudopot/Li.pbe-mt_fhi.UPF
     MD5 check sum: 3419f5616d131090147e867976aae79b
     Pseudo is Norm-conserving + core correction, Zval =  1.0
     Generated using FHI98PP, converted with fhi2upf.x v.5.0.2
     Using radial grid of  433 points,  3 beta functions with: 
                l(1) =   0
                l(2) =   1
                l(3) =   3

     atomic species   valence    mass     pseudopotential
     Li                1.00     6.94000     Li( 1.00)

     48 Sym. Ops., with inversion, found



   Cartesian axes

     site n.     atom                  positions (alat units)
         1        Li     tau(   1) = (   0.0000000   0.0000000   0.0000000  )

     number of k points=    44  Methfessel-Paxton smearing, width (Ry)=  0.0100
                       cart. coord. in units 2pi/alat
        k(    1) = (   0.0000000   0.0000000   0.1000000), wk =   0.0120000
        k(    2) = (   0.0000000  -0.1000000   0.2000000), wk =   0.0480000
        k(    3) = (   0.0000000  -0.2000000   0.3000000), wk =   0.0480000
        k(    4) = (   0.0000000  -0.3000000   0.4000000), wk =   0.0480000
        k(    5) = (   0.0000000  -0.4000000   0.5000000), wk =   0.0480000
        k(    6) = (  -0.1000000   0.1000000   0.1000000), wk =   0.0160000
        k(    7) = (  -0.1000000  -0.1000000   0.3000000), wk =   0.0480000
        k(    8) = (  -0.1000000  -0.2000000   0.4000000), wk =   0.0960000
        k(    9) = (  -0.1000000  -0.3000000   0.5000000), wk =   0.0960000
        k(   10) = (  -0.1000000   0.6000000  -0.4000000), wk =   0.0480000
        k(   11) = (  -0.2000000   0.2000000   0.1000000), wk =   0.0480000
        k(   12) = (  -0.2000000  -0.2000000   0.5000000), wk =   0.0480000
        k(   13) = (  -0.2000000   0.7000000  -0.4000000), wk =   0.0960000
        k(   14) = (  -0.3000000   0.3000000   0.1000000), wk =   0.0480000
        k(   15) = (  -0.3000000   0.2000000   0.2000000), wk =   0.0480000
        k(   16) = (  -0.3000000   0.7000000  -0.3000000), wk =   0.0160000
        k(   17) = (  -0.4000000   0.4000000   0.1000000), wk =   0.0480000
        k(   18) = (  -0.4000000   0.3000000   0.2000000), wk =   0.0960000
        k(   19) = (   0.5000000  -0.5000000   0.1000000), wk =   0.0240000
        k(   20) = (   0.5000000  -0.6000000   0.2000000), wk =   0.0960000
        k(   21) = (   0.5000000  -0.7000000   0.3000000), wk =   0.0480000
        k(   22) = (   0.4000000  -0.6000000   0.3000000), wk =   0.0480000
        k(   23) = (   0.0000000   0.0000000   0.3000000), wk =   0.0120000
        k(   24) = (   0.0000000  -0.1000000   0.4000000), wk =   0.0480000
        k(   25) = (   0.0000000  -0.2000000   0.5000000), wk =   0.0480000
        k(   26) = (   0.0000000  -0.3000000   0.6000000), wk =   0.0480000
        k(   27) = (  -0.1000000  -0.1000000   0.5000000), wk =   0.0480000
        k(   28) = (  -0.1000000  -0.2000000   0.6000000), wk =   0.0960000
        k(   29) = (  -0.1000000   0.7000000  -0.3000000), wk =   0.0480000
        k(   30) = (  -0.2000000   0.8000000  -0.3000000), wk =   0.0480000
        k(   31) = (  -0.3000000   0.3000000   0.3000000), wk =   0.0160000
        k(   32) = (   0.6000000  -0.6000000   0.3000000), wk =   0.0480000
        k(   33) = (   0.5000000  -0.5000000   0.3000000), wk =   0.0240000
        k(   34) = (   0.5000000  -0.6000000   0.4000000), wk =   0.0480000
        k(   35) = (   0.0000000   0.0000000   0.5000000), wk =   0.0120000
        k(   36) = (   0.0000000  -0.1000000   0.6000000), wk =   0.0480000
        k(   37) = (   0.0000000  -0.2000000   0.7000000), wk =   0.0480000
        k(   38) = (  -0.1000000  -0.1000000   0.7000000), wk =   0.0480000
        k(   39) = (  -0.1000000   0.8000000  -0.2000000), wk =   0.0480000
        k(   40) = (   0.5000000  -0.5000000   0.5000000), wk =   0.0040000
        k(   41) = (   0.0000000   0.0000000   0.7000000), wk =   0.0120000
        k(   42) = (   0.0000000  -0.1000000   0.8000000), wk =   0.0480000
        k(   43) = (  -0.1000000   0.9000000  -0.1000000), wk =   0.0160000
        k(   44) = (   0.0000000   0.0000000   0.9000000), wk =   0.0120000

     Dense  grid:     1601 G-vectors     FFT dimensions: (  15,  15,  15)

     Estimated max dynamical RAM per process >       1.99 MB

     Initial potential from superposition of free atoms

     starting charge       0.9960, renormalised to       1.0000
     Starting wfcs are   16 randomized atomic wfcs

     total cpu time spent up to now is        0.1 secs

     Self-consistent Calculation

     iteration #  1     ecut=    20.00 Ry     beta= 0.70
     Davidson diagonalization with overlap
     ethr =  1.00E-02,  avg # of iterations =  4.6

     Threshold (ethr) on eigenvalues was too large:
     Diagonalizing with lowered threshold

     Davidson diagonalization with overlap
     ethr =  1.80E-05,  avg # of iterations =  3.8

     total cpu time spent up to now is        0.2 secs

     total energy              =      -0.68916623 Ry
     estimated scf accuracy    <       0.00017888 Ry

     iteration #  2     ecut=    20.00 Ry     beta= 0.70
     Davidson diagonalization with overlap
     ethr =  1.79E-05,  avg # of iterations =  1.0

     total cpu time spent up to now is        0.2 secs

     total energy              =      -0.68916405 Ry
     estimated scf accuracy    <       0.00001557 Ry

     iteration #  3     ecut=    20.00 Ry     beta= 0.70
     Davidson diagonalization with overlap
     ethr =  1.56E-06,  avg # of iterations =  1.3

     total cpu time spent up to now is        0.3 secs

     End of self-consistent calculation

          k = 0.0000 0.0000 0.1000 (   201 PWs)   bands (ev):

    -3.0930  14.4216  14.4217  14.7003  18.6193

          k = 0.0000-0.1000 0.2000 (   205 PWs)   bands (ev):

    -2.7082  12.2322  13.1028  14.1744  16.9141

          k = 0.0000-0.2000 0.3000 (   202 PWs)   bands (ev):

    -1.9411   9.1100  11.8058  13.3717  16.1658

          k = 0.0000-0.3000 0.4000 (   199 PWs)   bands (ev):

    -0.8198   6.2353  10.8832  12.6636  15.1667

          k = 0.0000-0.4000 0.5000 (   199 PWs)   bands (ev):

     0.4326   4.0785  10.4114  12.2745  14.6642

          k =-0.1000 0.1000 0.1000 (   207 PWs)   bands (ev):

    -2.9010  13.4321  13.8061  13.8062  17.8887

          k =-0.1000-0.1000 0.3000 (   203 PWs)   bands (ev):

    -2.1296  10.5025  11.0564  13.4953  16.0323

          k =-0.1000-0.2000 0.4000 (   203 PWs)   bands (ev):

    -1.1724   7.6765   9.8403  12.7276  16.0312

          k =-0.1000-0.3000 0.5000 (   205 PWs)   bands (ev):

     0.0963   5.1111   9.1625  12.1514  16.0877

          k =-0.1000 0.6000-0.4000 (   200 PWs)   bands (ev):

     1.0341   3.7294   8.9363  11.9464  16.0271

          k =-0.2000 0.2000 0.1000 (   201 PWs)   bands (ev):

    -2.3249  10.7211  12.2670  12.6167  17.3652

          k =-0.2000-0.2000 0.5000 (   203 PWs)   bands (ev):

    -0.0311   6.0052   7.9903  12.2505  16.2801

          k =-0.2000 0.7000-0.4000 (   206 PWs)   bands (ev):

     1.3424   4.0795   7.2757  11.9577  16.7949

          k =-0.3000 0.3000 0.1000 (   201 PWs)   bands (ev):

    -1.3732   7.6299  11.2710  11.5682  16.6516

          k =-0.3000 0.2000 0.2000 (   205 PWs)   bands (ev):

    -1.5579   8.9521   9.9404  11.3922  18.1984

          k =-0.3000 0.7000-0.3000 (   209 PWs)   bands (ev):

     2.7854   2.7854   6.5295  11.8943  18.0884

          k =-0.4000 0.4000 0.1000 (   201 PWs)   bands (ev):

    -0.1198   5.0283  10.6464  10.8966  16.0763

          k =-0.4000 0.3000 0.2000 (   200 PWs)   bands (ev):

    -0.4241   6.3184   8.8236  10.6839  18.3059

          k = 0.5000-0.5000 0.1000 (   198 PWs)   bands (ev):

     0.7846   3.6678  10.4345  10.6680  15.8687

          k = 0.5000-0.6000 0.2000 (   206 PWs)   bands (ev):

     0.8947   4.1331   8.3426  10.3198  18.1620

          k = 0.5000-0.7000 0.3000 (   210 PWs)   bands (ev):

     0.8805   4.7894   7.0990  10.2572  19.7064

          k = 0.4000-0.6000 0.3000 (   206 PWs)   bands (ev):

     2.0413   3.4375   6.6285  10.1126  19.7900

          k = 0.0000 0.0000 0.3000 (   205 PWs)   bands (ev):

    -2.3193  11.6526  11.6526  13.6639  14.5361

          k = 0.0000-0.1000 0.4000 (   206 PWs)   bands (ev):

    -1.5433   9.2306  10.2977  13.0963  14.0216

          k = 0.0000-0.2000 0.5000 (   204 PWs)   bands (ev):

    -0.4031   6.4603   9.3500  12.4674  14.8206

          k = 0.0000-0.3000 0.6000 (   209 PWs)   bands (ev):

     0.9024   4.2832   8.8682  12.1291  15.8518

          k =-0.1000-0.1000 0.5000 (   204 PWs)   bands (ev):

    -0.5709   7.6271   8.6260  13.1328  13.2429

          k =-0.1000-0.2000 0.6000 (   209 PWs)   bands (ev):

     0.7380   5.3624   7.7774  12.6671  14.2017

          k =-0.1000 0.7000-0.3000 (   210 PWs)   bands (ev):

     1.7799   3.9332   7.5304  12.4904  15.1131

          k =-0.2000 0.8000-0.3000 (   209 PWs)   bands (ev):

     2.1774   4.0115   6.6401  13.2739  14.4019

          k =-0.3000 0.3000 0.3000 (   198 PWs)   bands (ev):

    -0.6018   7.7664   7.7664   9.9254  19.8292

          k = 0.6000-0.6000 0.3000 (   202 PWs)   bands (ev):

     0.7053   5.2615   7.0403   9.4029  20.9100

          k = 0.5000-0.5000 0.3000 (   206 PWs)   bands (ev):

     1.7923   3.7477   6.7965   9.2457  20.8229

          k = 0.5000-0.6000 0.4000 (   206 PWs)   bands (ev):

     2.1688   4.0501   5.6161   9.0158  21.9985

          k = 0.0000 0.0000 0.5000 (   209 PWs)   bands (ev):

    -0.7494   8.9197   8.9197  11.4701  12.9620

          k = 0.0000-0.1000 0.6000 (   209 PWs)   bands (ev):

     0.4247   6.8919   7.9618  11.2283  13.0149

          k = 0.0000-0.2000 0.7000 (   208 PWs)   bands (ev):

     1.8279   4.7428   7.4761  11.4082  13.9623

          k =-0.1000-0.1000 0.7000 (   208 PWs)   bands (ev):

     1.7816   5.6567   6.8684  11.2666  12.9372

          k =-0.1000 0.8000-0.2000 (   208 PWs)   bands (ev):

     3.0096   4.2910   6.5156  11.7262  13.4255

          k = 0.5000-0.5000 0.5000 (   216 PWs)   bands (ev):

     3.8024   3.8024   3.8024   8.6955  24.0790

          k = 0.0000 0.0000 0.7000 (   212 PWs)   bands (ev):

     1.6466   6.9993   6.9993   9.4254  12.4994

          k = 0.0000-0.1000 0.8000 (   216 PWs)   bands (ev):

     3.1661   5.4829   6.5117   9.7369  11.8668

          k =-0.1000 0.9000-0.1000 (   218 PWs)   bands (ev):

     4.6626   4.6626   6.0378  10.2665  10.2665

          k = 0.0000 0.0000 0.9000 (   220 PWs)   bands (ev):

     4.7789   6.0234   6.0234   8.4030   9.5642

     the Fermi energy is     0.4664 ev

!    total energy              =      -0.68916410 Ry
     estimated scf accuracy    <          3.2E-10 Ry
     smearing contrib. (-TS)   =      -0.00006941 Ry
     internal energy E=F+TS    =      -0.68909469 Ry

     The total energy is F=E-TS. E is the sum of the following terms:
     one-electron contribution =       0.41458545 Ry
     hartree contribution      =       0.00100264 Ry
     xc contribution           =      -0.54307264 Ry
     ewald contribution        =      -0.56161015 Ry

     convergence has been achieved in   3 iterations

     Forces acting on atoms (cartesian axes, Ry/au):

     atom    1 type  1   force =     0.00000000    0.00000000    0.00000000

     Total force =     0.000000     Total SCF correction =     0.000000


     Computing stress (Cartesian axis) and pressure

          total   stress  (Ry/bohr**3)                   (kbar)     P=      -10.63
  -0.00007224  -0.00000000   0.00000000          -10.63       -0.00        0.00
  -0.00000000  -0.00007224  -0.00000000           -0.00      -10.63       -0.00
   0.00000000  -0.00000000  -0.00007224            0.00       -0.00      -10.63


     Writing all to output data dir ./QE-outdir/li.save/ :
     XML data file, charge density, pseudopotentials, collected wavefunctions

     init_run     :      0.04s CPU      0.06s WALL (       1 calls)
     electrons    :      0.13s CPU      0.22s WALL (       1 calls)
     forces       :      0.00s CPU      0.00s WALL (       1 calls)
     stress       :      0.02s CPU      0.02s WALL (       1 calls)

     Called by init_run:
     wfcinit      :      0.03s CPU      0.04s WALL (       1 calls)
     potinit      :      0.00s CPU      0.00s WALL (       1 calls)
     hinit0       :      0.01s CPU      0.01s WALL (       1 calls)

     Called by electrons:
     c_bands      :      0.12s CPU      0.20s WALL (       4 calls)
     sum_band     :      0.01s CPU      0.01s WALL (       4 calls)
     v_of_rho     :      0.00s CPU      0.00s WALL (       4 calls)
     mix_rho      :      0.00s CPU      0.00s WALL (       4 calls)

     Called by c_bands:
     init_us_2    :      0.01s CPU      0.01s WALL (     484 calls)
     cegterg      :      0.11s CPU      0.20s WALL (     176 calls)

     Called by *egterg:
     cdiaghg      :      0.07s CPU      0.16s WALL (     603 calls)
     h_psi        :      0.05s CPU      0.06s WALL (     691 calls)
     g_psi        :      0.00s CPU      0.00s WALL (     471 calls)

     Called by h_psi:
     h_psi:calbec :      0.00s CPU      0.00s WALL (     691 calls)
     vloc_psi     :      0.05s CPU      0.05s WALL (     691 calls)
                                        0.00s GPU  (     691 calls)
     add_vuspsi   :      0.00s CPU      0.00s WALL (     691 calls)

     General routines
     calbec       :      0.01s CPU      0.01s WALL (    1439 calls)
     fft          :      0.00s CPU      0.00s WALL (      20 calls)
     ffts         :      0.00s CPU      0.00s WALL (       4 calls)
     fftw         :      0.04s CPU      0.05s WALL (    7302 calls)

     Parallel routines

     PWSCF        :      0.20s CPU      0.31s WALL


   This run was terminated on:  23:31: 0  31Jan2026            

=------------------------------------------------------------------------------=
   JOB DONE.
=------------------------------------------------------------------------------=
