
     Program PWSCF v.7.5 starts on 31Jan2026 at 23:31: 8 

     This program is part of the open-source Quantum ESPRESSO suite
     for quantum simulation of materials; please cite
         "P. Giannozzi et al., J. Phys.:Condens. Matter 21 395502 (2009);
         "P. Giannozzi et al., J. Phys.:Condens. Matter 29 465901 (2017);
         "P. Giannozzi et al., J. Chem. Phys. 152 154105 (2020);
          URL http://www.quantum-espresso.org", 
     in publications or presentations arising from this work. More details at
     http://www.quantum-espresso.org/quote

     Parallel version (MPI), running on     1 processors

     MPI processes distributed on     1 nodes
     0 MiB available memory on the printing compute node when the environment starts

     Waiting for input...
     Reading input from standard input
     Message from routine read_cards :
     DEPRECATED: no units specified in ATOMIC_POSITIONS card
     Message from routine read_cards :
     ATOMIC_POSITIONS: units set to alat

     Current dimensions of program PWSCF are:
     Max number of different atomic species (ntypx) = 10
     Max number of k-points (npk) =  40000
     Max angular momentum in pseudopotentials (lmaxx) =  4
     file Li.pbe-mt_fhi.UPF: wavefunction(s)  2p 4f renormalized

     IMPORTANT: XC functional enforced from input :
     Exchange-correlation= PZ
                           (   1   1   0   0   0   0   0)
     Any further DFT definition will be discarded
     Please, verify this is what you really want


     Subspace diagonalization in iterative solution of the eigenvalue problem:
     a serial algorithm will be used


     G-vector sticks info
     --------------------
     sticks:   dense  smooth     PW     G-vecs:    dense   smooth      PW
     Sum         205     205     69                 1865     1865     381

     Using Slab Decomposition



     bravais-lattice index     =            3
     lattice parameter (alat)  =       6.6800  a.u.
     unit-cell volume          =     149.0388 (a.u.)^3
     number of atoms/cell      =            1
     number of atomic types    =            1
     number of electrons       =         1.00
     number of Kohn-Sham states=            5
     kinetic-energy cutoff     =      20.0000  Ry
     charge density cutoff     =      80.0000  Ry
     scf convergence threshold =      1.0E-08
     mixing beta               =       0.7000
     number of iterations used =            8  plain     mixing
     Exchange-correlation= PZ
                           (   1   1   0   0   0   0   0)

     celldm(1)=   6.680000  celldm(2)=   0.000000  celldm(3)=   0.000000
     celldm(4)=   0.000000  celldm(5)=   0.000000  celldm(6)=   0.000000

     crystal axes: (cart. coord. in units of alat)
               a(1) = (   0.500000   0.500000   0.500000 )  
               a(2) = (  -0.500000   0.500000   0.500000 )  
               a(3) = (  -0.500000  -0.500000   0.500000 )  

     reciprocal axes: (cart. coord. in units 2 pi/alat)
               b(1) = (  1.000000  0.000000  1.000000 )  
               b(2) = ( -1.000000  1.000000  0.000000 )  
               b(3) = (  0.000000 -1.000000  1.000000 )  


     PseudoPot. # 1 for Li read from file:
     ./pseudopot/Li.pbe-mt_fhi.UPF
     MD5 check sum: 3419f5616d131090147e867976aae79b
     Pseudo is Norm-conserving + core correction, Zval =  1.0
     Generated using FHI98PP, converted with fhi2upf.x v.5.0.2
     Using radial grid of  433 points,  3 beta functions with: 
                l(1) =   0
                l(2) =   1
                l(3) =   3

     atomic species   valence    mass     pseudopotential
     Li                1.00     6.94000     Li( 1.00)

     48 Sym. Ops., with inversion, found



   Cartesian axes

     site n.     atom                  positions (alat units)
         1        Li     tau(   1) = (   0.0000000   0.0000000   0.0000000  )

     number of k points=    44  Methfessel-Paxton smearing, width (Ry)=  0.0100
                       cart. coord. in units 2pi/alat
        k(    1) = (   0.0000000   0.0000000   0.1000000), wk =   0.0120000
        k(    2) = (   0.0000000  -0.1000000   0.2000000), wk =   0.0480000
        k(    3) = (   0.0000000  -0.2000000   0.3000000), wk =   0.0480000
        k(    4) = (   0.0000000  -0.3000000   0.4000000), wk =   0.0480000
        k(    5) = (   0.0000000  -0.4000000   0.5000000), wk =   0.0480000
        k(    6) = (  -0.1000000   0.1000000   0.1000000), wk =   0.0160000
        k(    7) = (  -0.1000000  -0.1000000   0.3000000), wk =   0.0480000
        k(    8) = (  -0.1000000  -0.2000000   0.4000000), wk =   0.0960000
        k(    9) = (  -0.1000000  -0.3000000   0.5000000), wk =   0.0960000
        k(   10) = (  -0.1000000   0.6000000  -0.4000000), wk =   0.0480000
        k(   11) = (  -0.2000000   0.2000000   0.1000000), wk =   0.0480000
        k(   12) = (  -0.2000000  -0.2000000   0.5000000), wk =   0.0480000
        k(   13) = (  -0.2000000   0.7000000  -0.4000000), wk =   0.0960000
        k(   14) = (  -0.3000000   0.3000000   0.1000000), wk =   0.0480000
        k(   15) = (  -0.3000000   0.2000000   0.2000000), wk =   0.0480000
        k(   16) = (  -0.3000000   0.7000000  -0.3000000), wk =   0.0160000
        k(   17) = (  -0.4000000   0.4000000   0.1000000), wk =   0.0480000
        k(   18) = (  -0.4000000   0.3000000   0.2000000), wk =   0.0960000
        k(   19) = (   0.5000000  -0.5000000   0.1000000), wk =   0.0240000
        k(   20) = (   0.5000000  -0.6000000   0.2000000), wk =   0.0960000
        k(   21) = (   0.5000000  -0.7000000   0.3000000), wk =   0.0480000
        k(   22) = (   0.4000000  -0.6000000   0.3000000), wk =   0.0480000
        k(   23) = (   0.0000000   0.0000000   0.3000000), wk =   0.0120000
        k(   24) = (   0.0000000  -0.1000000   0.4000000), wk =   0.0480000
        k(   25) = (   0.0000000  -0.2000000   0.5000000), wk =   0.0480000
        k(   26) = (   0.0000000  -0.3000000   0.6000000), wk =   0.0480000
        k(   27) = (  -0.1000000  -0.1000000   0.5000000), wk =   0.0480000
        k(   28) = (  -0.1000000  -0.2000000   0.6000000), wk =   0.0960000
        k(   29) = (  -0.1000000   0.7000000  -0.3000000), wk =   0.0480000
        k(   30) = (  -0.2000000   0.8000000  -0.3000000), wk =   0.0480000
        k(   31) = (  -0.3000000   0.3000000   0.3000000), wk =   0.0160000
        k(   32) = (   0.6000000  -0.6000000   0.3000000), wk =   0.0480000
        k(   33) = (   0.5000000  -0.5000000   0.3000000), wk =   0.0240000
        k(   34) = (   0.5000000  -0.6000000   0.4000000), wk =   0.0480000
        k(   35) = (   0.0000000   0.0000000   0.5000000), wk =   0.0120000
        k(   36) = (   0.0000000  -0.1000000   0.6000000), wk =   0.0480000
        k(   37) = (   0.0000000  -0.2000000   0.7000000), wk =   0.0480000
        k(   38) = (  -0.1000000  -0.1000000   0.7000000), wk =   0.0480000
        k(   39) = (  -0.1000000   0.8000000  -0.2000000), wk =   0.0480000
        k(   40) = (   0.5000000  -0.5000000   0.5000000), wk =   0.0040000
        k(   41) = (   0.0000000   0.0000000   0.7000000), wk =   0.0120000
        k(   42) = (   0.0000000  -0.1000000   0.8000000), wk =   0.0480000
        k(   43) = (  -0.1000000   0.9000000  -0.1000000), wk =   0.0160000
        k(   44) = (   0.0000000   0.0000000   0.9000000), wk =   0.0120000

     Dense  grid:     1865 G-vectors     FFT dimensions: (  18,  18,  18)

     Estimated max dynamical RAM per process >       2.35 MB

     Initial potential from superposition of free atoms

     starting charge       0.9960, renormalised to       1.0000
     Starting wfcs are   16 randomized atomic wfcs

     total cpu time spent up to now is        0.1 secs

     Self-consistent Calculation

     iteration #  1     ecut=    20.00 Ry     beta= 0.70
     Davidson diagonalization with overlap
     ethr =  1.00E-02,  avg # of iterations =  4.7

     Threshold (ethr) on eigenvalues was too large:
     Diagonalizing with lowered threshold

     Davidson diagonalization with overlap
     ethr =  1.53E-05,  avg # of iterations =  4.3

     total cpu time spent up to now is        0.3 secs

     total energy              =      -0.68782447 Ry
     estimated scf accuracy    <       0.00015284 Ry

     iteration #  2     ecut=    20.00 Ry     beta= 0.70
     Davidson diagonalization with overlap
     ethr =  1.53E-05,  avg # of iterations =  1.0

     total cpu time spent up to now is        0.4 secs

     total energy              =      -0.68782300 Ry
     estimated scf accuracy    <       0.00001342 Ry

     iteration #  3     ecut=    20.00 Ry     beta= 0.70
     Davidson diagonalization with overlap
     ethr =  1.34E-06,  avg # of iterations =  1.0

     total cpu time spent up to now is        0.4 secs

     End of self-consistent calculation

          k = 0.0000 0.0000 0.1000 (   217 PWs)   bands (ev):

    -3.1985  13.3155  13.3156  13.5643  17.3837

          k = 0.0000-0.1000 0.2000 (   219 PWs)   bands (ev):

    -2.8272  11.2794  12.0945  13.0828  15.7475

          k = 0.0000-0.2000 0.3000 (   223 PWs)   bands (ev):

    -2.0876   8.3474  10.8825  12.3460  15.0524

          k = 0.0000-0.3000 0.4000 (   227 PWs)   bands (ev):

    -1.0047   5.6256  10.0183  11.6906  14.1128

          k = 0.0000-0.4000 0.5000 (   224 PWs)   bands (ev):

     0.2199   3.5552   9.5764  11.3290  13.6402

          k =-0.1000 0.1000 0.1000 (   222 PWs)   bands (ev):

    -3.0132  12.3766  12.7596  12.7597  16.6546

          k =-0.1000-0.1000 0.3000 (   220 PWs)   bands (ev):

    -2.2697   9.6889  10.1513  12.4541  14.9177

          k =-0.1000-0.2000 0.4000 (   223 PWs)   bands (ev):

    -1.3475   7.0136   9.0156  11.7487  14.8999

          k =-0.1000-0.3000 0.5000 (   225 PWs)   bands (ev):

    -0.1209   4.5717   8.3799  11.2147  14.9266

          k =-0.1000 0.6000-0.4000 (   221 PWs)   bands (ev):

     0.8043   3.2306   8.1673  11.0237  14.8636

          k =-0.2000 0.2000 0.1000 (   222 PWs)   bands (ev):

    -2.4576   9.8692  11.2900  11.6660  16.1460

          k =-0.2000-0.2000 0.5000 (   226 PWs)   bands (ev):

    -0.2499   5.4752   7.2187  11.3051  15.1471

          k =-0.2000 0.7000-0.4000 (   225 PWs)   bands (ev):

     1.0770   3.6380   6.5383  11.0306  15.6099

          k =-0.3000 0.3000 0.1000 (   229 PWs)   bands (ev):

    -1.5397   6.9547  10.3498  10.6914  15.4830

          k =-0.3000 0.2000 0.2000 (   222 PWs)   bands (ev):

    -1.7183   8.2419   9.1032  10.4737  16.8965

          k =-0.3000 0.7000-0.3000 (   225 PWs)   bands (ev):

     2.4505   2.4505   5.7891  10.9686  16.8486

          k =-0.4000 0.4000 0.1000 (   228 PWs)   bands (ev):

    -0.3255   4.4799   9.7610  10.0647  14.9478

          k =-0.4000 0.3000 0.2000 (   227 PWs)   bands (ev):

    -0.6260   5.7426   8.0640   9.7922  16.9998

          k = 0.5000-0.5000 0.1000 (   226 PWs)   bands (ev):

     0.5697   3.1580   9.5613   9.8510  14.7540

          k = 0.5000-0.6000 0.2000 (   223 PWs)   bands (ev):

     0.6553   3.6486   7.6173   9.4428  16.8687

          k = 0.5000-0.7000 0.3000 (   227 PWs)   bands (ev):

     0.6282   4.3342   6.3948   9.3713  18.2237

          k = 0.4000-0.6000 0.3000 (   220 PWs)   bands (ev):

     1.7514   3.0423   5.9439   9.2287  18.3817

          k = 0.0000 0.0000 0.3000 (   217 PWs)   bands (ev):

    -2.4529  10.7482  10.7482  12.5606  13.5411

          k = 0.0000-0.1000 0.4000 (   223 PWs)   bands (ev):

    -1.7063   8.4749   9.4808  12.0503  13.0122

          k = 0.0000-0.2000 0.5000 (   224 PWs)   bands (ev):

    -0.6084   5.8548   8.5920  11.4614  13.7513

          k = 0.0000-0.3000 0.6000 (   222 PWs)   bands (ev):

     0.6617   3.7698   8.1401  11.1411  14.7092

          k =-0.1000-0.1000 0.5000 (   224 PWs)   bands (ev):

    -0.7725   6.9935   7.8717  12.0558  12.3034

          k =-0.1000-0.2000 0.6000 (   223 PWs)   bands (ev):

     0.4868   4.8416   7.0687  11.6575  13.1708

          k =-0.1000 0.7000-0.3000 (   231 PWs)   bands (ev):

     1.5050   3.4591   6.8368  11.4903  14.0229

          k =-0.2000 0.8000-0.3000 (   229 PWs)   bands (ev):

     1.8665   3.6016   5.9335  12.2155  13.3874

          k =-0.3000 0.3000 0.3000 (   222 PWs)   bands (ev):

    -0.7982   7.1306   7.1306   8.9836  18.4233

          k = 0.6000-0.6000 0.3000 (   227 PWs)   bands (ev):

     0.4592   4.7593   6.4492   8.4668  19.1757

          k = 0.5000-0.5000 0.3000 (   228 PWs)   bands (ev):

     1.5175   3.3027   6.2203   8.3118  19.3603

          k = 0.5000-0.6000 0.4000 (   228 PWs)   bands (ev):

     1.8602   3.6398   5.0854   8.0687  20.4378

          k = 0.0000 0.0000 0.5000 (   233 PWs)   bands (ev):

    -0.9458   8.1902   8.1902  10.6560  11.8373

          k = 0.0000-0.1000 0.6000 (   228 PWs)   bands (ev):

     0.1792   6.2822   7.2917  10.3924  11.9001

          k = 0.0000-0.2000 0.7000 (   225 PWs)   bands (ev):

     1.5320   4.2347   6.8359  10.4845  12.8668

          k =-0.1000-0.1000 0.7000 (   227 PWs)   bands (ev):

     1.4763   5.1430   6.2239  10.4460  11.8229

          k =-0.1000 0.8000-0.2000 (   226 PWs)   bands (ev):

     2.6599   3.8385   5.8821  10.8365  12.4707

          k = 0.5000-0.5000 0.5000 (   216 PWs)   bands (ev):

     3.4074   3.4074   3.4074   7.7200  22.3904

          k = 0.0000 0.0000 0.7000 (   229 PWs)   bands (ev):

     1.3419   6.3885   6.3885   8.7320  11.3835

          k = 0.0000-0.1000 0.8000 (   230 PWs)   bands (ev):

     2.7912   4.9586   5.9309   9.0008  10.9468

          k =-0.1000 0.9000-0.1000 (   236 PWs)   bands (ev):

     4.2092   4.2092   5.4540   9.5058   9.5058

          k = 0.0000 0.0000 0.9000 (   236 PWs)   bands (ev):

     4.3090   5.4724   5.4724   7.7700   8.8416

     the Fermi energy is     0.2404 ev

!    total energy              =      -0.68782306 Ry
     estimated scf accuracy    <          5.1E-10 Ry
     smearing contrib. (-TS)   =      -0.00004326 Ry
     internal energy E=F+TS    =      -0.68777979 Ry

     The total energy is F=E-TS. E is the sum of the following terms:
     one-electron contribution =       0.38755495 Ry
     hartree contribution      =       0.00084981 Ry
     xc contribution           =      -0.53138910 Ry
     ewald contribution        =      -0.54479545 Ry

     convergence has been achieved in   3 iterations

     Forces acting on atoms (cartesian axes, Ry/au):

     atom    1 type  1   force =     0.00000000    0.00000000    0.00000000

     Total force =     0.000000     Total SCF correction =     0.000000


     Computing stress (Cartesian axis) and pressure

          total   stress  (Ry/bohr**3)                   (kbar)     P=      -19.57
  -0.00013302   0.00000000   0.00000000          -19.57        0.00        0.00
  -0.00000000  -0.00013302   0.00000000           -0.00      -19.57        0.00
   0.00000000   0.00000000  -0.00013302            0.00        0.00      -19.57


     Writing all to output data dir ./QE-outdir/li.save/ :
     XML data file, charge density, pseudopotentials, collected wavefunctions

     init_run     :      0.06s CPU      0.08s WALL (       1 calls)
     electrons    :      0.22s CPU      0.32s WALL (       1 calls)
     forces       :      0.00s CPU      0.00s WALL (       1 calls)
     stress       :      0.03s CPU      0.03s WALL (       1 calls)

     Called by init_run:
     wfcinit      :      0.05s CPU      0.07s WALL (       1 calls)
     potinit      :      0.00s CPU      0.00s WALL (       1 calls)
     hinit0       :      0.01s CPU      0.01s WALL (       1 calls)

     Called by electrons:
     c_bands      :      0.20s CPU      0.29s WALL (       4 calls)
     sum_band     :      0.03s CPU      0.03s WALL (       4 calls)
     v_of_rho     :      0.00s CPU      0.00s WALL (       4 calls)
     mix_rho      :      0.00s CPU      0.00s WALL (       4 calls)

     Called by c_bands:
     init_us_2    :      0.01s CPU      0.01s WALL (     484 calls)
     cegterg      :      0.19s CPU      0.28s WALL (     176 calls)

     Called by *egterg:
     cdiaghg      :      0.07s CPU      0.17s WALL (     619 calls)
     h_psi        :      0.15s CPU      0.16s WALL (     707 calls)
     g_psi        :      0.00s CPU      0.00s WALL (     487 calls)

     Called by h_psi:
     h_psi:calbec :      0.00s CPU      0.00s WALL (     707 calls)
     vloc_psi     :      0.15s CPU      0.15s WALL (     707 calls)
                                        0.00s GPU  (     707 calls)
     add_vuspsi   :      0.00s CPU      0.00s WALL (     707 calls)

     General routines
     calbec       :      0.01s CPU      0.01s WALL (    1455 calls)
     fft          :      0.00s CPU      0.00s WALL (      20 calls)
     ffts         :      0.00s CPU      0.00s WALL (       4 calls)
     fftw         :      0.15s CPU      0.15s WALL (    7390 calls)

     Parallel routines

     PWSCF        :      0.32s CPU      0.44s WALL


   This run was terminated on:  23:31: 8  31Jan2026            

=------------------------------------------------------------------------------=
   JOB DONE.
=------------------------------------------------------------------------------=
