
     Program PWSCF v.7.5 starts on 31Jan2026 at 23:30:51 

     This program is part of the open-source Quantum ESPRESSO suite
     for quantum simulation of materials; please cite
         "P. Giannozzi et al., J. Phys.:Condens. Matter 21 395502 (2009);
         "P. Giannozzi et al., J. Phys.:Condens. Matter 29 465901 (2017);
         "P. Giannozzi et al., J. Chem. Phys. 152 154105 (2020);
          URL http://www.quantum-espresso.org", 
     in publications or presentations arising from this work. More details at
     http://www.quantum-espresso.org/quote

     Parallel version (MPI), running on     1 processors

     MPI processes distributed on     1 nodes
     0 MiB available memory on the printing compute node when the environment starts

     Waiting for input...
     Reading input from standard input
     Message from routine read_cards :
     DEPRECATED: no units specified in ATOMIC_POSITIONS card
     Message from routine read_cards :
     ATOMIC_POSITIONS: units set to alat

     Current dimensions of program PWSCF are:
     Max number of different atomic species (ntypx) = 10
     Max number of k-points (npk) =  40000
     Max angular momentum in pseudopotentials (lmaxx) =  4
     file Li.pbe-mt_fhi.UPF: wavefunction(s)  2p 4f renormalized

     IMPORTANT: XC functional enforced from input :
     Exchange-correlation= PZ
                           (   1   1   0   0   0   0   0)
     Any further DFT definition will be discarded
     Please, verify this is what you really want


     Subspace diagonalization in iterative solution of the eigenvalue problem:
     a serial algorithm will be used


     G-vector sticks info
     --------------------
     sticks:   dense  smooth     PW     G-vecs:    dense   smooth      PW
     Sum         173     173     63                 1481     1481     321

     Using Slab Decomposition



     bravais-lattice index     =            3
     lattice parameter (alat)  =       6.2100  a.u.
     unit-cell volume          =     119.7415 (a.u.)^3
     number of atoms/cell      =            1
     number of atomic types    =            1
     number of electrons       =         1.00
     number of Kohn-Sham states=            5
     kinetic-energy cutoff     =      20.0000  Ry
     charge density cutoff     =      80.0000  Ry
     scf convergence threshold =      1.0E-08
     mixing beta               =       0.7000
     number of iterations used =            8  plain     mixing
     Exchange-correlation= PZ
                           (   1   1   0   0   0   0   0)

     celldm(1)=   6.210000  celldm(2)=   0.000000  celldm(3)=   0.000000
     celldm(4)=   0.000000  celldm(5)=   0.000000  celldm(6)=   0.000000

     crystal axes: (cart. coord. in units of alat)
               a(1) = (   0.500000   0.500000   0.500000 )  
               a(2) = (  -0.500000   0.500000   0.500000 )  
               a(3) = (  -0.500000  -0.500000   0.500000 )  

     reciprocal axes: (cart. coord. in units 2 pi/alat)
               b(1) = (  1.000000  0.000000  1.000000 )  
               b(2) = ( -1.000000  1.000000  0.000000 )  
               b(3) = (  0.000000 -1.000000  1.000000 )  


     PseudoPot. # 1 for Li read from file:
     ./pseudopot/Li.pbe-mt_fhi.UPF
     MD5 check sum: 3419f5616d131090147e867976aae79b
     Pseudo is Norm-conserving + core correction, Zval =  1.0
     Generated using FHI98PP, converted with fhi2upf.x v.5.0.2
     Using radial grid of  433 points,  3 beta functions with: 
                l(1) =   0
                l(2) =   1
                l(3) =   3

     atomic species   valence    mass     pseudopotential
     Li                1.00     6.94000     Li( 1.00)

     48 Sym. Ops., with inversion, found



   Cartesian axes

     site n.     atom                  positions (alat units)
         1        Li     tau(   1) = (   0.0000000   0.0000000   0.0000000  )

     number of k points=    44  Methfessel-Paxton smearing, width (Ry)=  0.0100
                       cart. coord. in units 2pi/alat
        k(    1) = (   0.0000000   0.0000000   0.1000000), wk =   0.0120000
        k(    2) = (   0.0000000  -0.1000000   0.2000000), wk =   0.0480000
        k(    3) = (   0.0000000  -0.2000000   0.3000000), wk =   0.0480000
        k(    4) = (   0.0000000  -0.3000000   0.4000000), wk =   0.0480000
        k(    5) = (   0.0000000  -0.4000000   0.5000000), wk =   0.0480000
        k(    6) = (  -0.1000000   0.1000000   0.1000000), wk =   0.0160000
        k(    7) = (  -0.1000000  -0.1000000   0.3000000), wk =   0.0480000
        k(    8) = (  -0.1000000  -0.2000000   0.4000000), wk =   0.0960000
        k(    9) = (  -0.1000000  -0.3000000   0.5000000), wk =   0.0960000
        k(   10) = (  -0.1000000   0.6000000  -0.4000000), wk =   0.0480000
        k(   11) = (  -0.2000000   0.2000000   0.1000000), wk =   0.0480000
        k(   12) = (  -0.2000000  -0.2000000   0.5000000), wk =   0.0480000
        k(   13) = (  -0.2000000   0.7000000  -0.4000000), wk =   0.0960000
        k(   14) = (  -0.3000000   0.3000000   0.1000000), wk =   0.0480000
        k(   15) = (  -0.3000000   0.2000000   0.2000000), wk =   0.0480000
        k(   16) = (  -0.3000000   0.7000000  -0.3000000), wk =   0.0160000
        k(   17) = (  -0.4000000   0.4000000   0.1000000), wk =   0.0480000
        k(   18) = (  -0.4000000   0.3000000   0.2000000), wk =   0.0960000
        k(   19) = (   0.5000000  -0.5000000   0.1000000), wk =   0.0240000
        k(   20) = (   0.5000000  -0.6000000   0.2000000), wk =   0.0960000
        k(   21) = (   0.5000000  -0.7000000   0.3000000), wk =   0.0480000
        k(   22) = (   0.4000000  -0.6000000   0.3000000), wk =   0.0480000
        k(   23) = (   0.0000000   0.0000000   0.3000000), wk =   0.0120000
        k(   24) = (   0.0000000  -0.1000000   0.4000000), wk =   0.0480000
        k(   25) = (   0.0000000  -0.2000000   0.5000000), wk =   0.0480000
        k(   26) = (   0.0000000  -0.3000000   0.6000000), wk =   0.0480000
        k(   27) = (  -0.1000000  -0.1000000   0.5000000), wk =   0.0480000
        k(   28) = (  -0.1000000  -0.2000000   0.6000000), wk =   0.0960000
        k(   29) = (  -0.1000000   0.7000000  -0.3000000), wk =   0.0480000
        k(   30) = (  -0.2000000   0.8000000  -0.3000000), wk =   0.0480000
        k(   31) = (  -0.3000000   0.3000000   0.3000000), wk =   0.0160000
        k(   32) = (   0.6000000  -0.6000000   0.3000000), wk =   0.0480000
        k(   33) = (   0.5000000  -0.5000000   0.3000000), wk =   0.0240000
        k(   34) = (   0.5000000  -0.6000000   0.4000000), wk =   0.0480000
        k(   35) = (   0.0000000   0.0000000   0.5000000), wk =   0.0120000
        k(   36) = (   0.0000000  -0.1000000   0.6000000), wk =   0.0480000
        k(   37) = (   0.0000000  -0.2000000   0.7000000), wk =   0.0480000
        k(   38) = (  -0.1000000  -0.1000000   0.7000000), wk =   0.0480000
        k(   39) = (  -0.1000000   0.8000000  -0.2000000), wk =   0.0480000
        k(   40) = (   0.5000000  -0.5000000   0.5000000), wk =   0.0040000
        k(   41) = (   0.0000000   0.0000000   0.7000000), wk =   0.0120000
        k(   42) = (   0.0000000  -0.1000000   0.8000000), wk =   0.0480000
        k(   43) = (  -0.1000000   0.9000000  -0.1000000), wk =   0.0160000
        k(   44) = (   0.0000000   0.0000000   0.9000000), wk =   0.0120000

     Dense  grid:     1481 G-vectors     FFT dimensions: (  15,  15,  15)

     Estimated max dynamical RAM per process >       1.85 MB

     Initial potential from superposition of free atoms

     starting charge       0.9960, renormalised to       1.0000
     Starting wfcs are   16 randomized atomic wfcs

     total cpu time spent up to now is        0.1 secs

     Self-consistent Calculation

     iteration #  1     ecut=    20.00 Ry     beta= 0.70
     Davidson diagonalization with overlap
     ethr =  1.00E-02,  avg # of iterations =  4.4

     Threshold (ethr) on eigenvalues was too large:
     Diagonalizing with lowered threshold

     Davidson diagonalization with overlap
     ethr =  2.37E-05,  avg # of iterations =  3.9

     total cpu time spent up to now is        0.2 secs

     total energy              =      -0.68938968 Ry
     estimated scf accuracy    <       0.00023811 Ry

     iteration #  2     ecut=    20.00 Ry     beta= 0.70
     Davidson diagonalization with overlap
     ethr =  2.38E-05,  avg # of iterations =  1.0

     total cpu time spent up to now is        0.2 secs

     total energy              =      -0.68938653 Ry
     estimated scf accuracy    <       0.00002054 Ry

     iteration #  3     ecut=    20.00 Ry     beta= 0.70
     Davidson diagonalization with overlap
     ethr =  2.05E-06,  avg # of iterations =  1.2

     total cpu time spent up to now is        0.3 secs

     End of self-consistent calculation

          k = 0.0000 0.0000 0.1000 (   181 PWs)   bands (ev):

    -2.9056  16.0957  16.0957  16.4188  20.4862

          k = 0.0000-0.1000 0.2000 (   183 PWs)   bands (ev):

    -2.5031  13.6726  14.6296  15.8253  18.6791

          k = 0.0000-0.2000 0.3000 (   183 PWs)   bands (ev):

    -1.6999  10.2652  13.2019  14.9213  17.8488

          k = 0.0000-0.3000 0.4000 (   180 PWs)   bands (ev):

    -0.5281   7.1646  12.1909  14.1330  16.7601

          k = 0.0000-0.4000 0.5000 (   182 PWs)   bands (ev):

     0.7588   4.8839  11.6744  13.7018  16.2127

          k =-0.1000 0.1000 0.1000 (   183 PWs)   bands (ev):

    -2.7050  15.0309  15.3879  15.3879  19.7568

          k =-0.1000-0.1000 0.3000 (   179 PWs)   bands (ev):

    -1.8966  11.7337  12.4270  15.0681  17.7184

          k =-0.1000-0.2000 0.4000 (   180 PWs)   bands (ev):

    -0.8925   8.6798  11.0933  14.2071  17.7410

          k =-0.1000-0.3000 0.5000 (   177 PWs)   bands (ev):

     0.4325   5.9339  10.3524  13.5672  17.8424

          k =-0.1000 0.6000-0.4000 (   180 PWs)   bands (ev):

     1.3859   4.4932  10.1051  13.3399  17.7844

          k =-0.2000 0.2000 0.1000 (   182 PWs)   bands (ev):

    -2.1021  12.0078  13.7487  14.0522  19.2087

          k =-0.2000-0.2000 0.5000 (   179 PWs)   bands (ev):

     0.3090   6.8091   9.1663  13.6801  17.9931

          k =-0.2000 0.7000-0.4000 (   182 PWs)   bands (ev):

     1.7478   4.7495   8.4056  13.3596  18.5835

          k =-0.3000 0.3000 0.1000 (   179 PWs)   bands (ev):

    -1.1058   8.6539  12.6692  12.8923  18.4173

          k =-0.3000 0.2000 0.2000 (   177 PWs)   bands (ev):

    -1.2980  10.0276  11.2020  12.7938  20.1674

          k =-0.3000 0.7000-0.3000 (   185 PWs)   bands (ev):

     3.2956   3.2956   7.6632  13.2965  19.9618

          k =-0.4000 0.4000 0.1000 (   183 PWs)   bands (ev):

     0.1990   5.8672  11.9898  12.1529  17.7810

          k =-0.4000 0.3000 0.2000 (   180 PWs)   bands (ev):

    -0.1085   7.1907   9.9701  12.0468  20.2780

          k = 0.5000-0.5000 0.1000 (   182 PWs)   bands (ev):

     1.1139   4.4511  11.7592  11.9016  17.5521

          k = 0.5000-0.6000 0.2000 (   178 PWs)   bands (ev):

     1.2614   4.8719   9.4391  11.6627  20.1133

          k = 0.5000-0.7000 0.3000 (   179 PWs)   bands (ev):

     1.2681   5.4807   8.1647  11.6169  21.7568

          k = 0.4000-0.6000 0.3000 (   177 PWs)   bands (ev):

     2.4839   4.0370   7.6664  11.4711  21.9108

          k = 0.0000 0.0000 0.3000 (   177 PWs)   bands (ev):

    -2.0947  13.0221  13.0221  15.3352  16.0402

          k = 0.0000-0.1000 0.4000 (   181 PWs)   bands (ev):

    -1.2791  10.3741  11.5347  14.6661  15.5638

          k = 0.0000-0.2000 0.5000 (   183 PWs)   bands (ev):

    -0.0816   7.3803  10.4971  13.9888  16.4414

          k = 0.0000-0.3000 0.6000 (   179 PWs)   bands (ev):

     1.2710   5.0700   9.9708  13.6277  17.5831

          k =-0.1000-0.1000 0.5000 (   182 PWs)   bands (ev):

    -0.2534   8.5869   9.7690  14.6645  14.7643

          k =-0.1000-0.2000 0.6000 (   182 PWs)   bands (ev):

     1.1247   6.1523   8.8560  14.1905  15.7681

          k =-0.1000 0.7000-0.3000 (   181 PWs)   bands (ev):

     2.1996   4.6542   8.5873  14.0032  16.7649

          k =-0.2000 0.8000-0.3000 (   187 PWs)   bands (ev):

     2.6514   4.6343   7.7189  14.8730  15.9359

          k =-0.3000 0.3000 0.3000 (   183 PWs)   bands (ev):

    -0.2931   8.7288   8.7288  11.3620  21.9543

          k = 0.6000-0.6000 0.3000 (   178 PWs)   bands (ev):

     1.0837   6.0228   7.9351  10.8386  23.1407

          k = 0.5000-0.5000 0.3000 (   176 PWs)   bands (ev):

     2.2124   4.4237   7.6689  10.6803  23.0277

          k = 0.5000-0.6000 0.4000 (   175 PWs)   bands (ev):

     2.6395   4.6737   6.4175  10.4750  24.3536

          k = 0.0000 0.0000 0.5000 (   184 PWs)   bands (ev):

    -0.4383  10.0241  10.0241  12.7017  14.6669

          k = 0.0000-0.1000 0.6000 (   184 PWs)   bands (ev):

     0.8054   7.8160   8.9768  12.4876  14.7122

          k = 0.0000-0.2000 0.7000 (   187 PWs)   bands (ev):

     2.2792   5.5165   8.4463  12.7980  15.6263

          k =-0.1000-0.1000 0.7000 (   187 PWs)   bands (ev):

     2.2488   6.4354   7.8464  12.5086  14.6181

          k =-0.1000 0.8000-0.2000 (   192 PWs)   bands (ev):

     3.5417   4.9767   7.4796  13.0642  14.8695

          k = 0.5000-0.5000 0.5000 (   180 PWs)   bands (ev):

     4.4034   4.4034   4.4034  10.1977  26.6413

          k = 0.0000 0.0000 0.7000 (   184 PWs)   bands (ev):

     2.1142   7.9253   7.9253  10.4753  14.1775

          k = 0.0000-0.1000 0.8000 (   184 PWs)   bands (ev):

     3.7370   6.2788   7.3929  10.8502  13.2413

          k =-0.1000 0.9000-0.1000 (   182 PWs)   bands (ev):

     5.3512   5.3512   6.9245  11.4185  11.4185

          k = 0.0000 0.0000 0.9000 (   180 PWs)   bands (ev):

     5.4924   6.8598   6.8598   9.3620  10.6580

     the Fermi energy is     0.8204 ev

!    total energy              =      -0.68938658 Ry
     estimated scf accuracy    <          2.5E-10 Ry
     smearing contrib. (-TS)   =      -0.00007587 Ry
     internal energy E=F+TS    =      -0.68931071 Ry

     The total energy is F=E-TS. E is the sum of the following terms:
     one-electron contribution =       0.45566891 Ry
     hartree contribution      =       0.00122875 Ry
     xc contribution           =      -0.56018041 Ry
     ewald contribution        =      -0.58602796 Ry

     convergence has been achieved in   3 iterations

     Forces acting on atoms (cartesian axes, Ry/au):

     atom    1 type  1   force =     0.00000000    0.00000000    0.00000000

     Total force =     0.000000     Total SCF correction =     0.000000


     Computing stress (Cartesian axis) and pressure

          total   stress  (Ry/bohr**3)                   (kbar)     P=        7.86
   0.00005343  -0.00000000   0.00000000            7.86       -0.00        0.00
  -0.00000000   0.00005343  -0.00000000           -0.00        7.86       -0.00
   0.00000000  -0.00000000   0.00005343            0.00       -0.00        7.86


     Writing all to output data dir ./QE-outdir/li.save/ :
     XML data file, charge density, pseudopotentials, collected wavefunctions

     init_run     :      0.04s CPU      0.05s WALL (       1 calls)
     electrons    :      0.12s CPU      0.21s WALL (       1 calls)
     forces       :      0.00s CPU      0.00s WALL (       1 calls)
     stress       :      0.02s CPU      0.02s WALL (       1 calls)

     Called by init_run:
     wfcinit      :      0.03s CPU      0.04s WALL (       1 calls)
     potinit      :      0.00s CPU      0.00s WALL (       1 calls)
     hinit0       :      0.01s CPU      0.01s WALL (       1 calls)

     Called by electrons:
     c_bands      :      0.11s CPU      0.20s WALL (       4 calls)
     sum_band     :      0.01s CPU      0.01s WALL (       4 calls)
     v_of_rho     :      0.00s CPU      0.00s WALL (       4 calls)
     mix_rho      :      0.00s CPU      0.00s WALL (       4 calls)

     Called by c_bands:
     init_us_2    :      0.01s CPU      0.01s WALL (     484 calls)
     cegterg      :      0.11s CPU      0.19s WALL (     176 calls)

     Called by *egterg:
     cdiaghg      :      0.07s CPU      0.16s WALL (     596 calls)
     h_psi        :      0.05s CPU      0.05s WALL (     684 calls)
     g_psi        :      0.00s CPU      0.00s WALL (     464 calls)

     Called by h_psi:
     h_psi:calbec :      0.00s CPU      0.00s WALL (     684 calls)
     vloc_psi     :      0.05s CPU      0.05s WALL (     684 calls)
                                        0.00s GPU  (     684 calls)
     add_vuspsi   :      0.00s CPU      0.00s WALL (     684 calls)

     General routines
     calbec       :      0.01s CPU      0.01s WALL (    1432 calls)
     fft          :      0.00s CPU      0.00s WALL (      20 calls)
     ffts         :      0.00s CPU      0.00s WALL (       4 calls)
     fftw         :      0.04s CPU      0.04s WALL (    7206 calls)

     Parallel routines

     PWSCF        :      0.19s CPU      0.30s WALL


   This run was terminated on:  23:30:52  31Jan2026            

=------------------------------------------------------------------------------=
   JOB DONE.
=------------------------------------------------------------------------------=
