
     Program PWSCF v.7.5 starts on  2Feb2026 at 12: 9: 8 

     This program is part of the open-source Quantum ESPRESSO suite
     for quantum simulation of materials; please cite
         "P. Giannozzi et al., J. Phys.:Condens. Matter 21 395502 (2009);
         "P. Giannozzi et al., J. Phys.:Condens. Matter 29 465901 (2017);
         "P. Giannozzi et al., J. Chem. Phys. 152 154105 (2020);
          URL http://www.quantum-espresso.org", 
     in publications or presentations arising from this work. More details at
     http://www.quantum-espresso.org/quote

     Parallel version (MPI), running on     1 processors

     MPI processes distributed on     1 nodes
     0 MiB available memory on the printing compute node when the environment starts

     Waiting for input...
     Reading input from standard input
     Message from routine read_cards :
     DEPRECATED: no units specified in ATOMIC_POSITIONS card
     Message from routine read_cards :
     ATOMIC_POSITIONS: units set to alat

     Current dimensions of program PWSCF are:
     Max number of different atomic species (ntypx) = 10
     Max number of k-points (npk) =  40000
     Max angular momentum in pseudopotentials (lmaxx) =  4
     file Li.pbe-mt_fhi.UPF: wavefunction(s)  2p 4f renormalized

     Subspace diagonalization in iterative solution of the eigenvalue problem:
     a serial algorithm will be used


     G-vector sticks info
     --------------------
     sticks:   dense  smooth     PW     G-vecs:    dense   smooth      PW
     Sum         181     181     67                 1553     1553     369

     Using Slab Decomposition



     bravais-lattice index     =            3
     lattice parameter (alat)  =       6.4319  a.u.
     unit-cell volume          =     133.0417 (a.u.)^3
     number of atoms/cell      =            1
     number of atomic types    =            1
     number of electrons       =         1.00
     number of Kohn-Sham states=            5
     kinetic-energy cutoff     =      20.0000  Ry
     charge density cutoff     =      80.0000  Ry
     scf convergence threshold =      1.0E-08
     mixing beta               =       0.7000
     number of iterations used =            8  plain     mixing
     Exchange-correlation= PBE
                           (   1   4   3   4   0   0   0)

     celldm(1)=   6.431900  celldm(2)=   0.000000  celldm(3)=   0.000000
     celldm(4)=   0.000000  celldm(5)=   0.000000  celldm(6)=   0.000000

     crystal axes: (cart. coord. in units of alat)
               a(1) = (   0.500000   0.500000   0.500000 )  
               a(2) = (  -0.500000   0.500000   0.500000 )  
               a(3) = (  -0.500000  -0.500000   0.500000 )  

     reciprocal axes: (cart. coord. in units 2 pi/alat)
               b(1) = (  1.000000  0.000000  1.000000 )  
               b(2) = ( -1.000000  1.000000  0.000000 )  
               b(3) = (  0.000000 -1.000000  1.000000 )  


     PseudoPot. # 1 for Li read from file:
     ./pseudopot/Li.pbe-mt_fhi.UPF
     MD5 check sum: 3419f5616d131090147e867976aae79b
     Pseudo is Norm-conserving + core correction, Zval =  1.0
     Generated using FHI98PP, converted with fhi2upf.x v.5.0.2
     Using radial grid of  433 points,  3 beta functions with: 
                l(1) =   0
                l(2) =   1
                l(3) =   3

     atomic species   valence    mass     pseudopotential
     Li                1.00     6.94000     Li( 1.00)

     48 Sym. Ops., with inversion, found



   Cartesian axes

     site n.     atom                  positions (alat units)
         1        Li     tau(   1) = (   0.0000000   0.0000000   0.0000000  )

     number of k points=    44  Methfessel-Paxton smearing, width (Ry)=  0.0100
                       cart. coord. in units 2pi/alat
        k(    1) = (   0.0000000   0.0000000   0.1000000), wk =   0.0120000
        k(    2) = (   0.0000000  -0.1000000   0.2000000), wk =   0.0480000
        k(    3) = (   0.0000000  -0.2000000   0.3000000), wk =   0.0480000
        k(    4) = (   0.0000000  -0.3000000   0.4000000), wk =   0.0480000
        k(    5) = (   0.0000000  -0.4000000   0.5000000), wk =   0.0480000
        k(    6) = (  -0.1000000   0.1000000   0.1000000), wk =   0.0160000
        k(    7) = (  -0.1000000  -0.1000000   0.3000000), wk =   0.0480000
        k(    8) = (  -0.1000000  -0.2000000   0.4000000), wk =   0.0960000
        k(    9) = (  -0.1000000  -0.3000000   0.5000000), wk =   0.0960000
        k(   10) = (  -0.1000000   0.6000000  -0.4000000), wk =   0.0480000
        k(   11) = (  -0.2000000   0.2000000   0.1000000), wk =   0.0480000
        k(   12) = (  -0.2000000  -0.2000000   0.5000000), wk =   0.0480000
        k(   13) = (  -0.2000000   0.7000000  -0.4000000), wk =   0.0960000
        k(   14) = (  -0.3000000   0.3000000   0.1000000), wk =   0.0480000
        k(   15) = (  -0.3000000   0.2000000   0.2000000), wk =   0.0480000
        k(   16) = (  -0.3000000   0.7000000  -0.3000000), wk =   0.0160000
        k(   17) = (  -0.4000000   0.4000000   0.1000000), wk =   0.0480000
        k(   18) = (  -0.4000000   0.3000000   0.2000000), wk =   0.0960000
        k(   19) = (   0.5000000  -0.5000000   0.1000000), wk =   0.0240000
        k(   20) = (   0.5000000  -0.6000000   0.2000000), wk =   0.0960000
        k(   21) = (   0.5000000  -0.7000000   0.3000000), wk =   0.0480000
        k(   22) = (   0.4000000  -0.6000000   0.3000000), wk =   0.0480000
        k(   23) = (   0.0000000   0.0000000   0.3000000), wk =   0.0120000
        k(   24) = (   0.0000000  -0.1000000   0.4000000), wk =   0.0480000
        k(   25) = (   0.0000000  -0.2000000   0.5000000), wk =   0.0480000
        k(   26) = (   0.0000000  -0.3000000   0.6000000), wk =   0.0480000
        k(   27) = (  -0.1000000  -0.1000000   0.5000000), wk =   0.0480000
        k(   28) = (  -0.1000000  -0.2000000   0.6000000), wk =   0.0960000
        k(   29) = (  -0.1000000   0.7000000  -0.3000000), wk =   0.0480000
        k(   30) = (  -0.2000000   0.8000000  -0.3000000), wk =   0.0480000
        k(   31) = (  -0.3000000   0.3000000   0.3000000), wk =   0.0160000
        k(   32) = (   0.6000000  -0.6000000   0.3000000), wk =   0.0480000
        k(   33) = (   0.5000000  -0.5000000   0.3000000), wk =   0.0240000
        k(   34) = (   0.5000000  -0.6000000   0.4000000), wk =   0.0480000
        k(   35) = (   0.0000000   0.0000000   0.5000000), wk =   0.0120000
        k(   36) = (   0.0000000  -0.1000000   0.6000000), wk =   0.0480000
        k(   37) = (   0.0000000  -0.2000000   0.7000000), wk =   0.0480000
        k(   38) = (  -0.1000000  -0.1000000   0.7000000), wk =   0.0480000
        k(   39) = (  -0.1000000   0.8000000  -0.2000000), wk =   0.0480000
        k(   40) = (   0.5000000  -0.5000000   0.5000000), wk =   0.0040000
        k(   41) = (   0.0000000   0.0000000   0.7000000), wk =   0.0120000
        k(   42) = (   0.0000000  -0.1000000   0.8000000), wk =   0.0480000
        k(   43) = (  -0.1000000   0.9000000  -0.1000000), wk =   0.0160000
        k(   44) = (   0.0000000   0.0000000   0.9000000), wk =   0.0120000

     Dense  grid:     1553 G-vectors     FFT dimensions: (  15,  15,  15)

     Estimated max dynamical RAM per process >       1.96 MB

     Initial potential from superposition of free atoms

     starting charge       0.9960, renormalised to       1.0000
     Starting wfcs are   16 randomized atomic wfcs

     total cpu time spent up to now is        0.1 secs

     Self-consistent Calculation

     iteration #  1     ecut=    20.00 Ry     beta= 0.70
     Davidson diagonalization with overlap
     ethr =  1.00E-02,  avg # of iterations =  4.5

     Threshold (ethr) on eigenvalues was too large:
     Diagonalizing with lowered threshold

     Davidson diagonalization with overlap
     ethr =  2.10E-05,  avg # of iterations =  3.5

     total cpu time spent up to now is        0.2 secs

     total energy              =      -0.69497398 Ry
     estimated scf accuracy    <       0.00020936 Ry

     iteration #  2     ecut=    20.00 Ry     beta= 0.70
     Davidson diagonalization with overlap
     ethr =  2.09E-05,  avg # of iterations =  1.2

     total cpu time spent up to now is        0.3 secs

     total energy              =      -0.69497276 Ry
     estimated scf accuracy    <       0.00001863 Ry

     iteration #  3     ecut=    20.00 Ry     beta= 0.70
     Davidson diagonalization with overlap
     ethr =  1.86E-06,  avg # of iterations =  1.4

     total cpu time spent up to now is        0.3 secs

     End of self-consistent calculation

          k = 0.0000 0.0000 0.1000 (   201 PWs)   bands (ev):

    -2.9674  14.8538  14.8539  15.1396  18.9932

          k = 0.0000-0.1000 0.2000 (   202 PWs)   bands (ev):

    -2.5790  12.6059  13.5064  14.5949  17.2880

          k = 0.0000-0.2000 0.3000 (   199 PWs)   bands (ev):

    -1.8049   9.4201  12.1860  13.7623  16.5442

          k = 0.0000-0.3000 0.4000 (   194 PWs)   bands (ev):

    -0.6740   6.5008  11.2480  13.0335  15.5293

          k = 0.0000-0.4000 0.5000 (   197 PWs)   bands (ev):

     0.5845   4.3206  10.7685  12.6341  15.0191

          k =-0.1000 0.1000 0.1000 (   198 PWs)   bands (ev):

    -2.7736  13.8536  14.2089  14.2090  18.2944

          k =-0.1000-0.1000 0.3000 (   203 PWs)   bands (ev):

    -1.9951  10.8262  11.4243  13.8991  16.3978

          k =-0.1000-0.2000 0.4000 (   197 PWs)   bands (ev):

    -1.0288   7.9554  10.1831  13.1100  16.4074

          k =-0.1000-0.3000 0.5000 (   200 PWs)   bands (ev):

     0.2503   5.3560   9.4929  12.5189  16.4773

          k =-0.1000 0.6000-0.4000 (   199 PWs)   bands (ev):

     1.1902   3.9640   9.2624  12.3090  16.4192

          k =-0.2000 0.2000 0.1000 (   199 PWs)   bands (ev):

    -2.1924  11.0571  12.6647  12.9782  17.7827

          k =-0.2000-0.2000 0.5000 (   201 PWs)   bands (ev):

     0.1236   6.2434   8.3168  12.6263  16.6554

          k =-0.2000 0.7000-0.4000 (   204 PWs)   bands (ev):

     1.5085   4.2942   7.5919  12.3287  17.1854

          k =-0.3000 0.3000 0.1000 (   194 PWs)   bands (ev):

    -1.2320   7.9128  11.6565  11.9030  17.0545

          k =-0.3000 0.2000 0.2000 (   198 PWs)   bands (ev):

    -1.4182   9.2402  10.2768  11.7666  18.6421

          k =-0.3000 0.7000-0.3000 (   203 PWs)   bands (ev):

     2.9698   2.9698   6.8474  12.2677  18.4895

          k =-0.4000 0.4000 0.1000 (   199 PWs)   bands (ev):

     0.0310   5.2760  11.0231  11.2161  16.4658

          k =-0.4000 0.3000 0.2000 (   196 PWs)   bands (ev):

    -0.2740   6.5701   9.1333  11.0539  18.7436

          k = 0.5000-0.5000 0.1000 (   198 PWs)   bands (ev):

     0.9366   3.9059  10.8079  10.9827  16.2536

          k = 0.5000-0.6000 0.2000 (   199 PWs)   bands (ev):

     1.0537   4.3614   8.6417  10.6877  18.5951

          k = 0.5000-0.7000 0.3000 (   201 PWs)   bands (ev):

     1.0435   5.0058   7.3954  10.6284  20.1422

          k = 0.4000-0.6000 0.3000 (   204 PWs)   bands (ev):

     2.2132   3.6382   6.9192  10.4837  20.2480

          k = 0.0000 0.0000 0.3000 (   205 PWs)   bands (ev):

    -2.1864  12.0208  12.0208  14.0881  14.8469

          k = 0.0000-0.1000 0.4000 (   198 PWs)   bands (ev):

    -1.4027   9.5433  10.6410  13.4796  14.3757

          k = 0.0000-0.2000 0.5000 (   198 PWs)   bands (ev):

    -0.2517   6.7254   9.6774  12.8378  15.1985

          k = 0.0000-0.3000 0.6000 (   205 PWs)   bands (ev):

     1.0621   4.5226   9.1873  12.4949  16.2534

          k =-0.1000-0.1000 0.5000 (   199 PWs)   bands (ev):

    -0.4203   7.8992   8.9506  13.5481  13.5603

          k =-0.1000-0.2000 0.6000 (   205 PWs)   bands (ev):

     0.9014   5.6016   8.0882  13.0420  14.5689

          k =-0.1000 0.7000-0.3000 (   202 PWs)   bands (ev):

     1.9485   4.1603   7.8374  12.8636  15.5004

          k =-0.2000 0.8000-0.3000 (   202 PWs)   bands (ev):

     2.3563   4.2176   6.9515  13.6846  14.7446

          k =-0.3000 0.3000 0.3000 (   192 PWs)   bands (ev):

    -0.4530   8.0315   8.0315  10.3226  20.2937

          k = 0.6000-0.6000 0.3000 (   198 PWs)   bands (ev):

     0.8665   5.4912   7.2922   9.7999  21.3828

          k = 0.5000-0.5000 0.3000 (   198 PWs)   bands (ev):

     1.9601   3.9637   7.0442   9.6426  21.3035

          k = 0.5000-0.6000 0.4000 (   199 PWs)   bands (ev):

     2.3458   4.2539   5.8533   9.4178  22.4922

          k = 0.0000 0.0000 0.5000 (   201 PWs)   bands (ev):

    -0.5998   9.2372   9.2372  11.7342  13.3907

          k = 0.0000-0.1000 0.6000 (   202 PWs)   bands (ev):

     0.5872   7.1633   8.2630  11.5145  13.4366

          k = 0.0000-0.2000 0.7000 (   208 PWs)   bands (ev):

     2.0029   4.9813   7.7692  11.7334  14.3657

          k =-0.1000-0.1000 0.7000 (   208 PWs)   bands (ev):

     1.9600   5.8958   7.1625  11.5529  13.3507

          k =-0.1000 0.8000-0.2000 (   208 PWs)   bands (ev):

     3.1994   4.5118   6.8067  12.0380  13.7520

          k = 0.5000-0.5000 0.5000 (   216 PWs)   bands (ev):

     4.0016   4.0016   4.0016   9.1084  24.5755

          k = 0.0000 0.0000 0.7000 (   212 PWs)   bands (ev):

     1.8252   7.2839   7.2839   9.6585  12.9079

          k = 0.0000-0.1000 0.8000 (   208 PWs)   bands (ev):

     3.3646   5.7309   6.7888   9.9961  12.1891

          k =-0.1000 0.9000-0.1000 (   212 PWs)   bands (ev):

     4.8857   4.8857   6.3156  10.5375  10.5375

          k = 0.0000 0.0000 0.9000 (   212 PWs)   bands (ev):

     5.0090   6.2925   6.2925   8.6206   9.8227

     the Fermi energy is     0.6232 ev

!    total energy              =      -0.69497284 Ry
     estimated scf accuracy    <          9.1E-10 Ry
     smearing contrib. (-TS)   =      -0.00007348 Ry
     internal energy E=F+TS    =      -0.69489936 Ry

     The total energy is F=E-TS. E is the sum of the following terms:
     one-electron contribution =       0.42154213 Ry
     hartree contribution      =       0.00109157 Ry
     xc contribution           =      -0.55172299 Ry
     ewald contribution        =      -0.56581007 Ry

     convergence has been achieved in   3 iterations

     Forces acting on atoms (cartesian axes, Ry/au):

     atom    1 type  1   force =     0.00000000    0.00000000    0.00000000

     Total force =     0.000000     Total SCF correction =     0.000000


     Computing stress (Cartesian axis) and pressure

          total   stress  (Ry/bohr**3)                   (kbar)     P=       -0.31
  -0.00000211   0.00000000  -0.00000000           -0.31        0.00       -0.00
   0.00000000  -0.00000211  -0.00000000            0.00       -0.31       -0.00
  -0.00000000  -0.00000000  -0.00000211           -0.00       -0.00       -0.31


     Writing all to output data dir ./QE-outdir/li.save/ :
     XML data file, charge density, pseudopotentials, collected wavefunctions

     init_run     :      0.04s CPU      0.06s WALL (       1 calls)
     electrons    :      0.13s CPU      0.22s WALL (       1 calls)
     forces       :      0.00s CPU      0.00s WALL (       1 calls)
     stress       :      0.02s CPU      0.02s WALL (       1 calls)

     Called by init_run:
     wfcinit      :      0.03s CPU      0.04s WALL (       1 calls)
     potinit      :      0.00s CPU      0.00s WALL (       1 calls)
     hinit0       :      0.01s CPU      0.01s WALL (       1 calls)

     Called by electrons:
     c_bands      :      0.12s CPU      0.20s WALL (       4 calls)
     sum_band     :      0.01s CPU      0.01s WALL (       4 calls)
     v_of_rho     :      0.00s CPU      0.00s WALL (       4 calls)
     mix_rho      :      0.00s CPU      0.00s WALL (       4 calls)

     Called by c_bands:
     init_us_2    :      0.01s CPU      0.01s WALL (     484 calls)
     cegterg      :      0.11s CPU      0.19s WALL (     176 calls)

     Called by *egterg:
     cdiaghg      :      0.07s CPU      0.16s WALL (     599 calls)
     h_psi        :      0.05s CPU      0.06s WALL (     687 calls)
     g_psi        :      0.00s CPU      0.00s WALL (     467 calls)

     Called by h_psi:
     h_psi:calbec :      0.00s CPU      0.00s WALL (     687 calls)
     vloc_psi     :      0.05s CPU      0.05s WALL (     687 calls)
                                        0.00s GPU  (     687 calls)
     add_vuspsi   :      0.00s CPU      0.00s WALL (     687 calls)

     General routines
     calbec       :      0.01s CPU      0.01s WALL (    1435 calls)
     fft          :      0.00s CPU      0.00s WALL (      65 calls)
     ffts         :      0.00s CPU      0.00s WALL (       4 calls)
     fftw         :      0.04s CPU      0.05s WALL (    7250 calls)

     Parallel routines

     PWSCF        :      0.20s CPU      0.33s WALL


   This run was terminated on:  12: 9: 9   2Feb2026            

=------------------------------------------------------------------------------=
   JOB DONE.
=------------------------------------------------------------------------------=
