
     Program PWSCF v.7.5 starts on 27Jan2026 at 23:26:36 

     This program is part of the open-source Quantum ESPRESSO suite
     for quantum simulation of materials; please cite
         "P. Giannozzi et al., J. Phys.:Condens. Matter 21 395502 (2009);
         "P. Giannozzi et al., J. Phys.:Condens. Matter 29 465901 (2017);
         "P. Giannozzi et al., J. Chem. Phys. 152 154105 (2020);
          URL http://www.quantum-espresso.org", 
     in publications or presentations arising from this work. More details at
     http://www.quantum-espresso.org/quote

     Parallel version (MPI), running on     1 processors

     MPI processes distributed on     1 nodes
     0 MiB available memory on the printing compute node when the environment starts

     Waiting for input...
     Reading input from standard input
     Message from routine read_cards :
     DEPRECATED: no units specified in ATOMIC_POSITIONS card
     Message from routine read_cards :
     ATOMIC_POSITIONS: units set to alat

     Current dimensions of program PWSCF are:
     Max number of different atomic species (ntypx) = 10
     Max number of k-points (npk) =  40000
     Max angular momentum in pseudopotentials (lmaxx) =  4
     file Li.pbe-mt_fhi.UPF: wavefunction(s)  2p 4f renormalized

     Atomic positions and unit cell read from directory:
     ./QE-outdir/li.save/


     Subspace diagonalization in iterative solution of the eigenvalue problem:
     a serial algorithm will be used


     G-vector sticks info
     --------------------
     sticks:   dense  smooth     PW     G-vecs:    dense   smooth      PW
     Sum         181     181     67                 1553     1553     369

     Using Slab Decomposition



     bravais-lattice index     =            3
     lattice parameter (alat)  =       6.4319  a.u.
     unit-cell volume          =     133.0417 (a.u.)^3
     number of atoms/cell      =            1
     number of atomic types    =            1
     number of electrons       =         1.00
     number of Kohn-Sham states=            8
     kinetic-energy cutoff     =      20.0000  Ry
     charge density cutoff     =      80.0000  Ry
     Exchange-correlation= PBE
                           (   1   4   3   4   0   0   0)

     celldm(1)=   6.431900  celldm(2)=   0.000000  celldm(3)=   0.000000
     celldm(4)=   0.000000  celldm(5)=   0.000000  celldm(6)=   0.000000

     crystal axes: (cart. coord. in units of alat)
               a(1) = (   0.500000   0.500000   0.500000 )  
               a(2) = (  -0.500000   0.500000   0.500000 )  
               a(3) = (  -0.500000  -0.500000   0.500000 )  

     reciprocal axes: (cart. coord. in units 2 pi/alat)
               b(1) = (  1.000000  0.000000  1.000000 )  
               b(2) = ( -1.000000  1.000000  0.000000 )  
               b(3) = (  0.000000 -1.000000  1.000000 )  


     PseudoPot. # 1 for Li read from file:
     ./pseudopot/Li.pbe-mt_fhi.UPF
     MD5 check sum: 3419f5616d131090147e867976aae79b
     Pseudo is Norm-conserving + core correction, Zval =  1.0
     Generated using FHI98PP, converted with fhi2upf.x v.5.0.2
     Using radial grid of  433 points,  3 beta functions with: 
                l(1) =   0
                l(2) =   1
                l(3) =   3

     atomic species   valence    mass     pseudopotential
     Li                1.00     6.94000     Li( 1.00)

     48 Sym. Ops., with inversion, found



   Cartesian axes

     site n.     atom                  positions (alat units)
         1        Li     tau(   1) = (   0.0000000   0.0000000   0.0000000  )

     number of k points=    61  Methfessel-Paxton smearing, width (Ry)=  0.0100
                       cart. coord. in units 2pi/alat
        k(    1) = (   0.0000000   0.0000000   0.0000000), wk =   0.0010576
        k(    2) = (   0.0500000   0.0000000   0.0000000), wk =   0.0021153
        k(    3) = (   0.1000000   0.0000000   0.0000000), wk =   0.0031729
        k(    4) = (   0.1500000   0.0000000   0.0000000), wk =   0.0042306
        k(    5) = (   0.2000000   0.0000000   0.0000000), wk =   0.0052882
        k(    6) = (   0.2500000   0.0000000   0.0000000), wk =   0.0063458
        k(    7) = (   0.3000000   0.0000000   0.0000000), wk =   0.0074035
        k(    8) = (   0.3500000   0.0000000   0.0000000), wk =   0.0084611
        k(    9) = (   0.4000000   0.0000000   0.0000000), wk =   0.0095188
        k(   10) = (   0.4500000   0.0000000   0.0000000), wk =   0.0105764
        k(   11) = (   0.5000000   0.0000000   0.0000000), wk =   0.0116341
        k(   12) = (   0.5500000   0.0000000   0.0000000), wk =   0.0126917
        k(   13) = (   0.6000000   0.0000000   0.0000000), wk =   0.0137493
        k(   14) = (   0.6500000   0.0000000   0.0000000), wk =   0.0148070
        k(   15) = (   0.7000000   0.0000000   0.0000000), wk =   0.0158646
        k(   16) = (   0.7500000   0.0000000   0.0000000), wk =   0.0169223
        k(   17) = (   0.8000000   0.0000000   0.0000000), wk =   0.0179799
        k(   18) = (   0.8500000   0.0000000   0.0000000), wk =   0.0190375
        k(   19) = (   0.9000000   0.0000000   0.0000000), wk =   0.0200952
        k(   20) = (   0.9500000   0.0000000   0.0000000), wk =   0.0211528
        k(   21) = (   1.0000000   0.0000000   0.0000000), wk =   0.0222105
        k(   22) = (   0.9500000   0.0500000   0.0000000), wk =   0.0232681
        k(   23) = (   0.9000000   0.1000000   0.0000000), wk =   0.0243258
        k(   24) = (   0.8500000   0.1500000   0.0000000), wk =   0.0253834
        k(   25) = (   0.8000000   0.2000000   0.0000000), wk =   0.0264410
        k(   26) = (   0.7500000   0.2500000   0.0000000), wk =   0.0274987
        k(   27) = (   0.7000000   0.3000000   0.0000000), wk =   0.0285563
        k(   28) = (   0.6500000   0.3500000   0.0000000), wk =   0.0296140
        k(   29) = (   0.6000000   0.4000000   0.0000000), wk =   0.0306716
        k(   30) = (   0.5500000   0.4500000   0.0000000), wk =   0.0317292
        k(   31) = (   0.5000000   0.5000000   0.0000000), wk =   0.0327869
        k(   32) = (   0.4500000   0.4500000   0.0000000), wk =   0.0338445
        k(   33) = (   0.4000000   0.4000000   0.0000000), wk =   0.0349022
        k(   34) = (   0.3500000   0.3500000   0.0000000), wk =   0.0359598
        k(   35) = (   0.3000000   0.3000000   0.0000000), wk =   0.0370175
        k(   36) = (   0.2500000   0.2500000   0.0000000), wk =   0.0380751
        k(   37) = (   0.2000000   0.2000000   0.0000000), wk =   0.0391327
        k(   38) = (   0.1500000   0.1500000   0.0000000), wk =   0.0401904
        k(   39) = (   0.1000000   0.1000000   0.0000000), wk =   0.0412480
        k(   40) = (   0.0500000   0.0500000   0.0000000), wk =   0.0423057
        k(   41) = (   0.0000000   0.0000000   0.0000000), wk =   0.0433633
        k(   42) = (   0.0500000   0.0500000   0.0500000), wk =   0.0444209
        k(   43) = (   0.1000000   0.1000000   0.1000000), wk =   0.0454786
        k(   44) = (   0.1500000   0.1500000   0.1500000), wk =   0.0465362
        k(   45) = (   0.2000000   0.2000000   0.2000000), wk =   0.0475939
        k(   46) = (   0.2500000   0.2500000   0.2500000), wk =   0.0486515
        k(   47) = (   0.3000000   0.3000000   0.3000000), wk =   0.0497091
        k(   48) = (   0.3500000   0.3500000   0.3500000), wk =   0.0507668
        k(   49) = (   0.4000000   0.4000000   0.4000000), wk =   0.0518244
        k(   50) = (   0.4500000   0.4500000   0.4500000), wk =   0.0528821
        k(   51) = (   0.5000000   0.5000000   0.5000000), wk =   0.0539397
        k(   52) = (   0.5500000   0.4500000   0.4500000), wk =   0.0549974
        k(   53) = (   0.6000000   0.4000000   0.4000000), wk =   0.0560550
        k(   54) = (   0.6500000   0.3500000   0.3500000), wk =   0.0571126
        k(   55) = (   0.7000000   0.3000000   0.3000000), wk =   0.0581703
        k(   56) = (   0.7500000   0.2500000   0.2500000), wk =   0.0592279
        k(   57) = (   0.8000000   0.2000000   0.2000000), wk =   0.0602856
        k(   58) = (   0.8500000   0.1500000   0.1500000), wk =   0.0613432
        k(   59) = (   0.9000000   0.1000000   0.1000000), wk =   0.0624008
        k(   60) = (   0.9500000   0.0500000   0.0500000), wk =   0.0634585
        k(   61) = (   1.0000000   0.0000000   0.0000000), wk =   0.0645161

     Dense  grid:     1553 G-vectors     FFT dimensions: (  15,  15,  15)

     Estimated max dynamical RAM per process >       0.91 MB

     The potential is recalculated from file :
     ./QE-outdir/li.save/charge-density

     Starting wfcs are   16 randomized atomic wfcs

     Band Structure Calculation
     Davidson diagonalization with overlap

     ethr =  1.00E-09,  avg # of iterations = 19.9

     total cpu time spent up to now is        0.8 secs

     End of band structure calculation

          k = 0.0000 0.0000 0.0000 (   201 PWs)   bands (ev):

    -3.0644  15.3767  15.3767  15.3767  20.3091  20.3091  20.3091  21.2926

          k = 0.0500 0.0000 0.0000 (   201 PWs)   bands (ev):

    -3.0401  15.2418  15.2418  15.3131  20.0109  20.0109  20.1868  20.3415

          k = 0.1000 0.0000 0.0000 (   201 PWs)   bands (ev):

    -2.9674  14.8539  14.8539  15.1397  18.9931  19.6436  19.6436  20.4386

          k = 0.1500 0.0000 0.0000 (   197 PWs)   bands (ev):

    -2.8459  14.2675  14.2675  14.8968  17.8604  19.4653  19.4653  20.6005

          k = 0.2000 0.0000 0.0000 (   205 PWs)   bands (ev):

    -2.6755  13.5577  13.5577  14.6200  16.7915  19.4700  19.4700  20.8271

          k = 0.2500 0.0000 0.0000 (   201 PWs)   bands (ev):

    -2.4558  12.7947  12.7947  14.3449  15.7869  19.6185  19.6185  21.1184

          k = 0.3000 0.0000 0.0000 (   205 PWs)   bands (ev):

    -2.1863  12.0210  12.0210  14.0882  14.8469  19.8784  19.8784  21.4743

          k = 0.3500 0.0000 0.0000 (   205 PWs)   bands (ev):

    -1.8666  11.2654  11.2654  13.8619  13.9716  20.2316  20.2316  21.8950

          k = 0.4000 0.0000 0.0000 (   201 PWs)   bands (ev):

    -1.4960  10.5438  10.5438  13.1610  13.6712  20.6662  20.6662  22.3803

          k = 0.4500 0.0000 0.0000 (   205 PWs)   bands (ev):

    -1.0740   9.8655   9.8655  12.4152  13.5143  21.1753  21.1753  22.9302

          k = 0.5000 0.0000 0.0000 (   201 PWs)   bands (ev):

    -0.5998   9.2373   9.2373  11.7342  13.3908  21.7550  21.7550  21.8632

          k = 0.5500 0.0000 0.0000 (   205 PWs)   bands (ev):

    -0.0731   8.6628   8.6628  11.1180  13.2906  20.3144  22.4016  22.4016

          k = 0.6000 0.0000 0.0000 (   204 PWs)   bands (ev):

     0.5067   8.1446   8.1446  10.5666  13.2012  18.8041  23.1131  23.1131

          k = 0.6500 0.0000 0.0000 (   204 PWs)   bands (ev):

     1.1397   7.6848   7.6848  10.0801  13.0937  17.3780  23.8872  23.8872

          k = 0.7000 0.0000 0.0000 (   212 PWs)   bands (ev):

     1.8253   7.2840   7.2840   9.6585  12.9080  16.1023  24.7209  24.7209

          k = 0.7500 0.0000 0.0000 (   212 PWs)   bands (ev):

     2.5624   6.9441   6.9441   9.3017  12.5194  15.1075  25.6110  25.6110

          k = 0.8000 0.0000 0.0000 (   212 PWs)   bands (ev):

     3.3471   6.6653   6.6653   9.0098  11.8004  14.5209  26.5507  26.5507

          k = 0.8500 0.0000 0.0000 (   212 PWs)   bands (ev):

     4.1708   6.4480   6.4480   8.7827  10.8381  14.2606  27.5265  27.5265

          k = 0.9000 0.0000 0.0000 (   212 PWs)   bands (ev):

     5.0091   6.2926   6.2926   8.6206   9.8227  14.1563  28.5048  28.5048

          k = 0.9500 0.0000 0.0000 (   212 PWs)   bands (ev):

     5.7799   6.1993   6.1993   8.5233   8.9243  14.1167  29.3798  29.3798

          k = 1.0000 0.0000 0.0000 (   188 PWs)   bands (ev):

     6.1696   6.1696   6.1696   8.4909   8.4909  14.1071  29.8082  29.8082

          k = 0.9500 0.0500 0.0000 (   212 PWs)   bands (ev):

     5.6590   5.9809   6.2304   8.7685   9.1277  14.1259  28.9067  28.9683

          k = 0.9000 0.1000 0.0000 (   212 PWs)   bands (ev):

     4.7593   5.5859   6.4168   9.4244  10.4103  14.1898  27.0023  27.5224

          k = 0.8500 0.1500 0.0000 (   212 PWs)   bands (ev):

     3.8702   5.1689   6.7265  10.2370  11.9371  14.3201  24.9292  26.1027

          k = 0.8000 0.2000 0.0000 (   210 PWs)   bands (ev):

     3.0720   4.7992   7.1578  11.0613  13.6270  14.5673  22.9047  24.8544

          k = 0.7500 0.2500 0.0000 (   206 PWs)   bands (ev):

     2.3862   4.4963   7.7075  11.7564  15.0114  15.4575  20.9846  23.8436

          k = 0.7000 0.3000 0.0000 (   206 PWs)   bands (ev):

     1.8206   4.2627   8.3683  12.2152  15.6899  17.4183  19.1925  23.1290

          k = 0.6500 0.3500 0.0000 (   208 PWs)   bands (ev):

     1.3787   4.0933   9.1258  12.4509  16.4892  17.5509  19.5018  22.7816

          k = 0.6000 0.4000 0.0000 (   202 PWs)   bands (ev):

     1.0622   3.9808   9.9432  12.5500  16.1004  17.1907  21.6973  22.8639

          k = 0.5500 0.4500 0.0000 (   194 PWs)   bands (ev):

     0.8721   3.9171  10.7086  12.5833  14.9553  17.6223  23.2788  23.9733

          k = 0.5000 0.5000 0.0000 (   194 PWs)   bands (ev):

     0.8087   3.8966  11.0797  12.5897  14.4572  17.7591  23.5552  25.7986

          k = 0.4500 0.4500 0.0000 (   192 PWs)   bands (ev):

     0.5247   4.2971  11.1394  12.6420  14.5218  17.7311  23.2242  25.7751

          k = 0.4000 0.4000 0.0000 (   198 PWs)   bands (ev):

    -0.0764   5.2463  11.3179  12.7957  14.7154  17.6581  22.5260  25.6245

          k = 0.3500 0.3500 0.0000 (   194 PWs)   bands (ev):

    -0.7269   6.4735  11.6136  13.0477  15.0379  17.5682  21.7844  25.1959

          k = 0.3000 0.3000 0.0000 (   194 PWs)   bands (ev):

    -1.3304   7.8738  12.0230  13.3867  15.4891  17.4970  21.1218  24.4685

          k = 0.2500 0.2500 0.0000 (   194 PWs)   bands (ev):

    -1.8551   9.4010  12.5399  13.7949  16.0683  17.4833  20.5931  23.5908

          k = 0.2000 0.2000 0.0000 (   201 PWs)   bands (ev):

    -2.2891  11.0107  13.1505  14.2413  16.7744  17.5689  20.2391  22.7043

          k = 0.1500 0.1500 0.0000 (   201 PWs)   bands (ev):

    -2.6280  12.6265  13.8328  14.6808  17.6047  17.8208  20.1062  21.9036

          k = 0.1000 0.1000 0.0000 (   201 PWs)   bands (ev):

    -2.8704  14.0744  14.5324  15.0504  18.3762  18.5512  20.2441  21.2610

          k = 0.0500 0.0500 0.0000 (   201 PWs)   bands (ev):

    -3.0159  15.0526  15.1247  15.2932  19.4287  19.5786  20.6867  20.6875

          k = 0.0000 0.0000 0.0000 (   201 PWs)   bands (ev):

    -3.0644  15.3767  15.3767  15.3767  20.3091  20.3091  20.3091  21.2926

          k = 0.0500 0.0500 0.0500 (   201 PWs)   bands (ev):

    -2.9917  14.8785  15.1306  15.1306  19.2027  19.2027  20.9382  20.9382

          k = 0.1000 0.1000 0.1000 (   198 PWs)   bands (ev):

    -2.7736  13.8538  14.2090  14.2090  18.2944  18.2944  21.1998  21.1998

          k = 0.1500 0.1500 0.1500 (   201 PWs)   bands (ev):

    -2.4103  12.7075  12.7075  12.7771  18.2407  18.2407  21.6784  21.6784

          k = 0.2000 0.2000 0.2000 (   204 PWs)   bands (ev):

    -1.9020  11.0588  11.0588  11.8058  18.6691  18.6691  22.3539  22.3539

          k = 0.2500 0.2500 0.2500 (   192 PWs)   bands (ev):

    -1.2490   9.4763   9.4763  10.9858  19.3799  19.3799  23.2233  23.2233

          k = 0.3000 0.3000 0.3000 (   192 PWs)   bands (ev):

    -0.4530   8.0315   8.0315  10.3228  20.2937  20.2937  24.2842  24.2842

          k = 0.3500 0.3500 0.3500 (   192 PWs)   bands (ev):

     0.4835   6.7525   6.7525   9.8099  21.3678  21.3678  25.5337  25.5337

          k = 0.4000 0.4000 0.4000 (   198 PWs)   bands (ev):

     1.5533   5.6508   5.6508   9.4377  22.5412  22.5412  26.0245  26.9622

          k = 0.4500 0.4500 0.4500 (   198 PWs)   bands (ev):

     2.7399   4.7331   4.7331   9.1994  23.7020  23.7020  25.5100  28.5217

          k = 0.5000 0.5000 0.5000 (   216 PWs)   bands (ev):

     4.0017   4.0017   4.0017   9.1085  24.5755  24.5755  24.5755  29.5882

          k = 0.5500 0.4500 0.4500 (   204 PWs)   bands (ev):

     3.4597   3.4597   5.2346   9.2399  23.2522  24.6229  24.6229  28.1177

          k = 0.6000 0.4000 0.4000 (   204 PWs)   bands (ev):

     3.1069   3.1069   6.2092   9.7776  21.8254  23.1709  23.1709  27.0255

          k = 0.6500 0.3500 0.3500 (   209 PWs)   bands (ev):

     2.9437   2.9437   6.7149  10.8649  20.5812  20.8695  20.8695  26.7860

          k = 0.7000 0.3000 0.3000 (   203 PWs)   bands (ev):

     2.9698   2.9698   6.8475  12.2678  18.4895  18.4895  19.7689  26.8423

          k = 0.7500 0.2500 0.2500 (   206 PWs)   bands (ev):

     3.1835   3.1835   6.7904  13.5034  16.2238  16.2238  19.7256  27.0827

          k = 0.8000 0.2000 0.2000 (   206 PWs)   bands (ev):

     3.5815   3.5815   6.6462  14.1260  14.1260  14.1428  20.7958  27.4900

          k = 0.8500 0.1500 0.1500 (   209 PWs)   bands (ev):

     4.1560   4.1560   6.4735  12.2209  12.2209  14.2659  22.8303  28.0511

          k = 0.9000 0.1000 0.1000 (   212 PWs)   bands (ev):

     4.8858   4.8858   6.3157  10.5375  10.5375  14.2053  25.4110  28.7348

          k = 0.9500 0.0500 0.0500 (   212 PWs)   bands (ev):

     5.6904   5.6904   6.2068   9.1599   9.1599  14.1342  28.1568  29.4360

          k = 1.0000 0.0000 0.0000 (   188 PWs)   bands (ev):

     6.1696   6.1696   6.1696   8.4909   8.4909  14.1071  29.8082  29.8082

     Writing all to output data dir ./QE-outdir/li.save/ :
     XML data file, pseudopotentials, collected wavefunctions

     init_run     :      0.01s CPU      0.01s WALL (       1 calls)
     electrons    :      0.41s CPU      0.76s WALL (       1 calls)

     Called by init_run:
     wfcinit      :      0.00s CPU      0.00s WALL (       1 calls)
     potinit      :      0.00s CPU      0.00s WALL (       1 calls)
     hinit0       :      0.01s CPU      0.01s WALL (       1 calls)

     Called by electrons:
     c_bands      :      0.41s CPU      0.76s WALL (       1 calls)
     v_of_rho     :      0.00s CPU      0.00s WALL (       1 calls)

     Called by c_bands:
     init_us_2    :      0.00s CPU      0.00s WALL (      61 calls)
     cegterg      :      0.37s CPU      0.70s WALL (      83 calls)

     Called by *egterg:
     cdiaghg      :      0.25s CPU      0.59s WALL (    1272 calls)
     h_psi        :      0.12s CPU      0.12s WALL (    1355 calls)
     g_psi        :      0.00s CPU      0.00s WALL (    1211 calls)

     Called by h_psi:
     h_psi:calbec :      0.01s CPU      0.01s WALL (    1355 calls)
     vloc_psi     :      0.10s CPU      0.11s WALL (    1355 calls)
                                        0.00s GPU  (    1355 calls)
     add_vuspsi   :      0.00s CPU      0.00s WALL (    1355 calls)

     General routines
     calbec       :      0.01s CPU      0.01s WALL (    1355 calls)
     fft          :      0.00s CPU      0.00s WALL (      11 calls)
     fftw         :      0.09s CPU      0.09s WALL (   14448 calls)
     davcio       :      0.00s CPU      0.00s WALL (     122 calls)

     Parallel routines

     PWSCF        :      0.45s CPU      0.81s WALL


   This run was terminated on:  23:26:36  27Jan2026            

=------------------------------------------------------------------------------=
   JOB DONE.
=------------------------------------------------------------------------------=
