
     Program PROJWFC v.7.5 starts on  2Feb2026 at 14:29:11 

     This program is part of the open-source Quantum ESPRESSO suite
     for quantum simulation of materials; please cite
         "P. Giannozzi et al., J. Phys.:Condens. Matter 21 395502 (2009);
         "P. Giannozzi et al., J. Phys.:Condens. Matter 29 465901 (2017);
         "P. Giannozzi et al., J. Chem. Phys. 152 154105 (2020);
          URL http://www.quantum-espresso.org", 
     in publications or presentations arising from this work. More details at
     http://www.quantum-espresso.org/quote

     Parallel version (MPI), running on     1 processors

     MPI processes distributed on     1 nodes
     0 MiB available memory on the printing compute node when the environment starts


     Reading xml data from directory:

     ./QE-outdir/li.save/
     file Li.pbe-mt_fhi.UPF: wavefunction(s)  2p 4f renormalized

     IMPORTANT: XC functional enforced from input :
     Exchange-correlation= PBE
                           (   1   4   3   4   0   0   0)
     Any further DFT definition will be discarded
     Please, verify this is what you really want


     G-vector sticks info
     --------------------
     sticks:   dense  smooth     PW     G-vecs:    dense   smooth      PW
     Sum         181     181     67                 1553     1553     369

     Using Slab Decomposition


     Gaussian broadening (read from input): ngauss,degauss=   0    0.030000


     Calling projwave .... 
     Subspace diagonalization in iterative solution of the eigenvalue problem:
     a serial algorithm will be used


  Problem Sizes 
  natomwfc =           16
  nbnd     =            5
  nkstot   =          250
  npwx     =          212
  nkb      =           11


     Atomic states used for projection
     (read from pseudopotential files):

     state #   1: atom   1 (Li ), wfc  1 (l=0 m= 1)
     state #   2: atom   1 (Li ), wfc  2 (l=1 m= 1)
     state #   3: atom   1 (Li ), wfc  2 (l=1 m= 2)
     state #   4: atom   1 (Li ), wfc  2 (l=1 m= 3)
     state #   5: atom   1 (Li ), wfc  3 (l=2 m= 1)
     state #   6: atom   1 (Li ), wfc  3 (l=2 m= 2)
     state #   7: atom   1 (Li ), wfc  3 (l=2 m= 3)
     state #   8: atom   1 (Li ), wfc  3 (l=2 m= 4)
     state #   9: atom   1 (Li ), wfc  3 (l=2 m= 5)
     state #  10: atom   1 (Li ), wfc  4 (l=3 m= 1)
     state #  11: atom   1 (Li ), wfc  4 (l=3 m= 2)
     state #  12: atom   1 (Li ), wfc  4 (l=3 m= 3)
     state #  13: atom   1 (Li ), wfc  4 (l=3 m= 4)
     state #  14: atom   1 (Li ), wfc  4 (l=3 m= 5)
     state #  15: atom   1 (Li ), wfc  4 (l=3 m= 6)
     state #  16: atom   1 (Li ), wfc  4 (l=3 m= 7)

 k =   0.0000000000  0.0000000000  0.0500000000
==== e(   1) =    -3.04012 eV ==== 
     psi = 0.991*[#   1]
    |psi|^2 = 0.992
==== e(   2) =    15.24183 eV ==== 
     psi = 0.269*[#   2]+0.269*[#   3]+0.269*[#   4]+0.009*[#   6]+0.009*[#   7]
          +0.009*[#   9]+0.003*[#  10]+0.002*[#  15]+0.002*[#  16]
    |psi|^2 = 0.840
==== e(   3) =    15.24183 eV ==== 
     psi = 0.269*[#   2]+0.269*[#   3]+0.269*[#   4]+0.009*[#   6]+0.009*[#   7]
          +0.009*[#   9]+0.003*[#  10]+0.002*[#  15]+0.002*[#  16]
    |psi|^2 = 0.840
==== e(   4) =    15.31313 eV ==== 
     psi = 0.274*[#   2]+0.274*[#   3]+0.274*[#   4]+0.003*[#  10]+0.002*[#  15]
          +0.002*[#  16]+0.001*[#  11]+0.001*[#  12]
    |psi|^2 = 0.834
==== e(   5) =    20.01092 eV ==== 
     psi = 0.032*[#   6]+0.032*[#   7]+0.032*[#   9]+0.021*[#  13]+0.013*[#  11]
          +0.013*[#  12]+0.008*[#  15]+0.008*[#  16]+0.007*[#   2]+0.007*[#   3]
          +0.007*[#   4]
    |psi|^2 = 0.181

 k =   0.0000000000 -0.0500000000  0.1000000000
==== e(   1) =    -2.94313 eV ==== 
     psi = 0.978*[#   1]+0.003*[#   5]+0.003*[#   8]+0.002*[#   6]+0.002*[#   7]
          +0.002*[#   9]
    |psi|^2 = 0.992
==== e(   2) =    14.61315 eV ==== 
     psi = 0.221*[#   2]+0.221*[#   3]+0.221*[#   4]+0.044*[#   6]+0.044*[#   7]
          +0.044*[#   9]+0.005*[#   5]+0.005*[#   8]+0.002*[#  10]+0.001*[#  15]
          +0.001*[#  16]+0.001*[#  11]+0.001*[#  12]
    |psi|^2 = 0.812
==== e(   3) =    14.77736 eV ==== 
     psi = 0.240*[#   2]+0.240*[#   3]+0.240*[#   4]+0.031*[#   6]+0.031*[#   7]
          +0.031*[#   9]+0.002*[#  10]+0.001*[#  15]+0.001*[#  16]
    |psi|^2 = 0.820
==== e(   4) =    15.14742 eV ==== 
     psi = 0.263*[#   2]+0.263*[#   3]+0.263*[#   4]+0.004*[#   5]+0.004*[#   8]
          +0.004*[#  10]+0.002*[#  15]+0.002*[#  16]+0.002*[#  11]+0.002*[#  12]
          
    |psi|^2 = 0.810
==== e(   5) =    18.74361 eV ==== 
     psi = 0.117*[#   5]+0.117*[#   8]+0.036*[#  13]+0.033*[#   6]+0.033*[#   7]
          +0.033*[#   9]+0.029*[#   2]+0.029*[#   3]+0.029*[#   4]+0.022*[#  11]
          +0.022*[#  12]+0.014*[#  15]+0.014*[#  16]+0.003*[#   1]
    |psi|^2 = 0.532

 k =   0.0000000000 -0.1000000000  0.1500000000
==== e(   1) =    -2.74912 eV ==== 
     psi = 0.911*[#   1]+0.016*[#   5]+0.016*[#   8]+0.015*[#   6]+0.015*[#   7]
          +0.015*[#   9]+0.002*[#   2]+0.002*[#   3]+0.002*[#   4]
    |psi|^2 = 0.992
==== e(   2) =    13.37789 eV ==== 
     psi = 0.158*[#   2]+0.158*[#   3]+0.158*[#   4]+0.089*[#   6]+0.089*[#   7]
          +0.089*[#   9]+0.023*[#   5]+0.023*[#   8]+0.007*[#   1]+0.002*[#  13]
          +0.002*[#  11]+0.002*[#  12]+0.002*[#  15]+0.002*[#  16]+0.001*[#  10]
          
    |psi|^2 = 0.806
==== e(   3) =    14.10015 eV ==== 
     psi = 0.217*[#   2]+0.217*[#   3]+0.217*[#   4]+0.045*[#   6]+0.045*[#   7]
          +0.045*[#   9]+0.002*[#  14]
    |psi|^2 = 0.789
==== e(   4) =    14.84999 eV ==== 
     psi = 0.244*[#   2]+0.244*[#   3]+0.244*[#   4]+0.012*[#   5]+0.012*[#   8]
          +0.005*[#  10]+0.004*[#  15]+0.004*[#  16]+0.003*[#  11]+0.003*[#  12]
          
    |psi|^2 = 0.775
==== e(   5) =    17.92044 eV ==== 
     psi = 0.153*[#   5]+0.153*[#   8]+0.066*[#   2]+0.066*[#   3]+0.066*[#   4]
          +0.028*[#  13]+0.025*[#   1]+0.019*[#   6]+0.019*[#   7]+0.019*[#   9]
          +0.018*[#  11]+0.018*[#  12]+0.011*[#  15]+0.011*[#  16]
    |psi|^2 = 0.670

 k =   0.0000000000 -0.1500000000  0.2000000000
==== e(   1) =    -2.45825 eV ==== 
     psi = 0.748*[#   1]+0.050*[#   6]+0.050*[#   7]+0.050*[#   9]+0.041*[#   5]
          +0.041*[#   8]+0.004*[#   2]+0.004*[#   3]+0.004*[#   4]
    |psi|^2 = 0.993
==== e(   2) =    11.82502 eV ==== 
     psi = 0.125*[#   2]+0.125*[#   3]+0.125*[#   4]+0.088*[#   6]+0.088*[#   7]
          +0.088*[#   9]+0.048*[#   1]+0.037*[#   5]+0.037*[#   8]+0.004*[#  13]
          +0.003*[#  11]+0.003*[#  12]+0.002*[#  15]+0.002*[#  16]
    |psi|^2 = 0.776
==== e(   3) =    13.39387 eV ==== 
     psi = 0.206*[#   2]+0.206*[#   3]+0.206*[#   4]+0.046*[#   6]+0.046*[#   7]
          +0.046*[#   9]+0.005*[#  14]
    |psi|^2 = 0.762
==== e(   4) =    14.44913 eV ==== 
     psi = 0.222*[#   2]+0.222*[#   3]+0.222*[#   4]+0.024*[#   5]+0.024*[#   8]
          +0.007*[#  10]+0.005*[#  15]+0.005*[#  16]+0.004*[#  11]+0.004*[#  12]
          +0.003*[#  13]
    |psi|^2 = 0.741
==== e(   5) =    17.29432 eV ==== 
     psi = 0.199*[#   6]+0.199*[#   7]+0.199*[#   9]+0.014*[#  13]+0.009*[#  11]
          +0.009*[#  12]+0.007*[#   2]+0.007*[#   3]+0.007*[#   4]+0.005*[#  15]
          +0.005*[#  16]
    |psi|^2 = 0.660

 k =   0.0000000000 -0.2000000000  0.2500000000
==== e(   1) =    -2.07133 eV ==== 
     psi = 0.517*[#   1]+0.104*[#   6]+0.104*[#   7]+0.104*[#   9]+0.074*[#   5]
          +0.074*[#   8]+0.006*[#   2]+0.006*[#   3]+0.006*[#   4]
    |psi|^2 = 0.992
==== e(   2) =    10.20264 eV ==== 
     psi = 0.116*[#   2]+0.116*[#   3]+0.116*[#   4]+0.039*[#   1]+0.031*[#   6]
          +0.031*[#   7]+0.031*[#   9]+0.029*[#   5]+0.029*[#   8]+0.006*[#  13]
          +0.004*[#  11]+0.004*[#  12]+0.003*[#  15]+0.003*[#  16]
    |psi|^2 = 0.557
==== e(   3) =    12.73903 eV ==== 
     psi = 0.203*[#   2]+0.203*[#   3]+0.203*[#   4]+0.046*[#   6]+0.046*[#   7]
          +0.046*[#   9]+0.010*[#  14]
    |psi|^2 = 0.755
==== e(   4) =    14.00555 eV ==== 
     psi = 0.202*[#   2]+0.202*[#   3]+0.202*[#   4]+0.036*[#   5]+0.036*[#   8]
          +0.008*[#  10]+0.007*[#  15]+0.007*[#  16]+0.006*[#  11]+0.006*[#  12]
          +0.005*[#  13]
    |psi|^2 = 0.719
==== e(   5) =    16.53135 eV ==== 
     psi = 0.237*[#   6]+0.237*[#   7]+0.237*[#   9]+0.010*[#  13]+0.007*[#   2]
          +0.007*[#   3]+0.007*[#   4]+0.006*[#  11]+0.006*[#  12]+0.004*[#  15]
          +0.004*[#  16]
    |psi|^2 = 0.762

 k =   0.0000000000 -0.2500000000  0.3000000000
==== e(   1) =    -1.59091 eV ==== 
     psi = 0.270*[#   1]+0.161*[#   6]+0.161*[#   7]+0.161*[#   9]+0.105*[#   5]
          +0.105*[#   8]+0.008*[#   2]+0.008*[#   3]+0.008*[#   4]
    |psi|^2 = 0.986
==== e(   2) =     8.62946 eV ==== 
     psi = 0.103*[#   1]+0.097*[#   2]+0.097*[#   3]+0.097*[#   4]+0.006*[#  13]
          +0.005*[#   5]+0.005*[#   8]+0.004*[#  11]+0.004*[#  12]+0.002*[#  15]
          +0.002*[#  16]+0.002*[#   6]+0.002*[#   7]+0.002*[#   9]
    |psi|^2 = 0.427
==== e(   3) =    12.17025 eV ==== 
     psi = 0.203*[#   2]+0.203*[#   3]+0.203*[#   4]+0.048*[#   6]+0.048*[#   7]
          +0.048*[#   9]+0.015*[#  14]
    |psi|^2 = 0.769
==== e(   4) =    13.57696 eV ==== 
     psi = 0.189*[#   2]+0.189*[#   3]+0.189*[#   4]+0.048*[#   5]+0.048*[#   8]
          +0.010*[#  10]+0.008*[#  15]+0.008*[#  16]+0.008*[#  11]+0.008*[#  12]
          +0.006*[#  13]
    |psi|^2 = 0.713
==== e(   5) =    15.89199 eV ==== 
     psi = 0.267*[#   6]+0.267*[#   7]+0.267*[#   9]+0.007*[#  13]+0.006*[#   2]
          +0.006*[#   3]+0.006*[#   4]+0.004*[#  11]+0.004*[#  12]+0.003*[#  15]
          +0.003*[#  16]+0.001*[#  14]
    |psi|^2 = 0.842

 k =   0.0000000000 -0.3000000000  0.3500000000
==== e(   1) =    -1.02425 eV ==== 
     psi = 0.196*[#   6]+0.196*[#   7]+0.196*[#   9]+0.124*[#   5]+0.124*[#   8]
          +0.120*[#   1]+0.010*[#   2]+0.010*[#   3]+0.010*[#   4]
    |psi|^2 = 0.985
==== e(   2) =     7.16208 eV ==== 
     psi = 0.446*[#   1]+0.074*[#   2]+0.074*[#   3]+0.074*[#   4]+0.007*[#   6]
          +0.007*[#   7]+0.007*[#   9]+0.004*[#  13]+0.003*[#   5]+0.003*[#   8]
          +0.002*[#  11]+0.002*[#  12]+0.001*[#  15]+0.001*[#  16]
    |psi|^2 = 0.706
==== e(   3) =    11.70428 eV ==== 
     psi = 0.205*[#   2]+0.205*[#   3]+0.205*[#   4]+0.052*[#   6]+0.052*[#   7]
          +0.052*[#   9]+0.021*[#  14]
    |psi|^2 = 0.794
==== e(   4) =    13.20302 eV ==== 
     psi = 0.182*[#   2]+0.182*[#   3]+0.182*[#   4]+0.053*[#   5]+0.053*[#   8]
          +0.011*[#  10]+0.010*[#  15]+0.010*[#  16]+0.009*[#  11]+0.009*[#  12]
          +0.008*[#  13]
    |psi|^2 = 0.710
==== e(   5) =    15.37898 eV ==== 
     psi = 0.287*[#   6]+0.287*[#   7]+0.287*[#   9]+0.006*[#   2]+0.006*[#   3]
          +0.006*[#   4]+0.005*[#  13]+0.003*[#  11]+0.003*[#  12]+0.002*[#  15]
          +0.002*[#  16]+0.001*[#  14]
    |psi|^2 = 0.893

 k =   0.0000000000 -0.3500000000  0.4000000000
==== e(   1) =    -0.39037 eV ==== 
     psi = 0.208*[#   6]+0.208*[#   7]+0.208*[#   9]+0.128*[#   5]+0.128*[#   8]
          +0.042*[#   1]+0.017*[#   2]+0.017*[#   3]+0.017*[#   4]
    |psi|^2 = 0.976
==== e(   2) =     5.84109 eV ==== 
     psi = 0.568*[#   1]+0.060*[#   2]+0.060*[#   3]+0.060*[#   4]+0.005*[#   5]
          +0.005*[#   8]+0.002*[#  13]+0.002*[#  11]+0.002*[#  12]
    |psi|^2 = 0.767
==== e(   3) =    11.34992 eV ==== 
     psi = 0.211*[#   2]+0.211*[#   3]+0.211*[#   4]+0.040*[#   6]+0.040*[#   7]
          +0.040*[#   9]+0.027*[#  14]
    |psi|^2 = 0.781
==== e(   4) =    12.90728 eV ==== 
     psi = 0.179*[#   2]+0.179*[#   3]+0.179*[#   4]+0.034*[#   5]+0.034*[#   8]
          +0.012*[#  10]+0.011*[#  15]+0.011*[#  16]+0.010*[#  11]+0.010*[#  12]
          +0.009*[#  13]+0.002*[#   1]
    |psi|^2 = 0.674
==== e(   5) =    14.99355 eV ==== 
     psi = 0.295*[#   6]+0.295*[#   7]+0.295*[#   9]+0.006*[#   2]+0.006*[#   3]
          +0.006*[#   4]+0.003*[#  13]+0.002*[#  11]+0.002*[#  12]+0.002*[#  14]
          
    |psi|^2 = 0.913

 k =   0.0000000000 -0.4000000000  0.4500000000
==== e(   1) =     0.25601 eV ==== 
     psi = 0.188*[#   6]+0.188*[#   7]+0.188*[#   9]+0.116*[#   5]+0.116*[#   8]
          +0.038*[#   2]+0.038*[#   3]+0.038*[#   4]+0.001*[#   1]
    |psi|^2 = 0.912
==== e(   2) =     4.73181 eV ==== 
     psi = 0.515*[#   1]+0.046*[#   2]+0.046*[#   3]+0.046*[#   4]+0.019*[#   5]
          +0.019*[#   8]+0.015*[#   6]+0.015*[#   7]+0.015*[#   9]+0.002*[#  13]
          +0.001*[#  11]+0.001*[#  12]
    |psi|^2 = 0.743
==== e(   3) =    11.11195 eV ==== 
     psi = 0.217*[#   2]+0.217*[#   3]+0.217*[#   4]+0.030*[#  14]+0.019*[#   6]
          +0.019*[#   7]+0.019*[#   9]
    |psi|^2 = 0.739
==== e(   4) =    12.70437 eV ==== 
     psi = 0.178*[#   2]+0.178*[#   3]+0.178*[#   4]+0.014*[#  10]+0.012*[#   5]
          +0.012*[#   8]+0.012*[#  15]+0.012*[#  16]+0.011*[#  11]+0.011*[#  12]
          +0.010*[#  13]+0.005*[#   1]
    |psi|^2 = 0.637
==== e(   5) =    14.73637 eV ==== 
     psi = 0.294*[#   6]+0.294*[#   7]+0.294*[#   9]+0.006*[#   2]+0.006*[#   3]
          +0.006*[#   4]+0.002*[#  14]+0.001*[#  13]
    |psi|^2 = 0.905

 k =   0.0000000000 -0.4500000000  0.5000000000
==== e(   1) =     0.74658 eV ==== 
     psi = 0.095*[#   2]+0.095*[#   3]+0.095*[#   4]+0.070*[#   5]+0.070*[#   8]
          +0.055*[#   6]+0.055*[#   7]+0.055*[#   9]+0.006*[#   1]+0.001*[#  13]
          
    |psi|^2 = 0.599
==== e(   2) =     4.00874 eV ==== 
     psi = 0.241*[#   1]+0.137*[#   6]+0.137*[#   7]+0.137*[#   9]+0.101*[#   5]
          +0.101*[#   8]+0.013*[#   2]+0.013*[#   3]+0.013*[#   4]
    |psi|^2 = 0.896
==== e(   3) =    10.99209 eV ==== 
     psi = 0.219*[#   2]+0.219*[#   3]+0.219*[#   4]+0.032*[#  14]+0.010*[#   6]
          +0.010*[#   7]+0.010*[#   9]
    |psi|^2 = 0.719
==== e(   4) =    12.60129 eV ==== 
     psi = 0.177*[#   2]+0.177*[#   3]+0.177*[#   4]+0.015*[#  10]+0.013*[#  15]
          +0.013*[#  16]+0.012*[#  11]+0.012*[#  12]+0.010*[#  13]+0.005*[#   1]
          +0.003*[#   5]+0.003*[#   8]
    |psi|^2 = 0.620
==== e(   5) =    14.60768 eV ==== 
     psi = 0.290*[#   6]+0.290*[#   7]+0.290*[#   9]+0.006*[#   2]+0.006*[#   3]
          +0.006*[#   4]+0.002*[#  14]
    |psi|^2 = 0.892

 k =  -0.0500000000  0.0500000000  0.0500000000
==== e(   1) =    -2.99166 eV ==== 
     psi = 0.988*[#   1]+0.001*[#   6]+0.001*[#   7]+0.001*[#   9]
    |psi|^2 = 0.992
==== e(   2) =    14.87846 eV ==== 
     psi = 0.245*[#   2]+0.245*[#   3]+0.245*[#   4]+0.026*[#   6]+0.026*[#   7]
          +0.026*[#   9]+0.002*[#  10]+0.001*[#  15]+0.001*[#  16]
    |psi|^2 = 0.818
==== e(   3) =    15.13060 eV ==== 
     psi = 0.258*[#   2]+0.258*[#   3]+0.258*[#   4]+0.013*[#   6]+0.013*[#   7]
          +0.013*[#   9]+0.003*[#   5]+0.003*[#   8]+0.003*[#  10]+0.002*[#  15]
          +0.002*[#  16]+0.001*[#  11]+0.001*[#  12]
    |psi|^2 = 0.829
==== e(   4) =    15.13060 eV ==== 
     psi = 0.258*[#   2]+0.258*[#   3]+0.258*[#   4]+0.013*[#   6]+0.013*[#   7]
          +0.013*[#   9]+0.003*[#   5]+0.003*[#   8]+0.003*[#  10]+0.002*[#  15]
          +0.002*[#  16]+0.001*[#  11]+0.001*[#  12]
    |psi|^2 = 0.829
==== e(   5) =    19.20266 eV ==== 
     psi = 0.062*[#   6]+0.062*[#   7]+0.062*[#   9]+0.038*[#   5]+0.038*[#   8]
          +0.031*[#  13]+0.019*[#  11]+0.019*[#  12]+0.017*[#   2]+0.017*[#   3]
          +0.017*[#   4]+0.012*[#  15]+0.012*[#  16]
    |psi|^2 = 0.408

 k =  -0.0500000000 -0.0500000000  0.1500000000
==== e(   1) =    -2.79749 eV ==== 
     psi = 0.932*[#   1]+0.016*[#   5]+0.016*[#   8]+0.008*[#   6]+0.008*[#   7]
          +0.008*[#   9]+0.001*[#   2]+0.001*[#   3]+0.001*[#   4]
    |psi|^2 = 0.992
==== e(   2) =    13.94313 eV ==== 
     psi = 0.197*[#   2]+0.197*[#   3]+0.197*[#   4]+0.062*[#   6]+0.062*[#   7]
          +0.062*[#   9]+0.002*[#   5]+0.002*[#   8]+0.001*[#  10]
    |psi|^2 = 0.789
==== e(   3) =    14.01176 eV ==== 
     psi = 0.186*[#   2]+0.186*[#   3]+0.186*[#   4]+0.071*[#   6]+0.071*[#   7]
          +0.071*[#   9]+0.018*[#   5]+0.018*[#   8]+0.002*[#  13]+0.002*[#  11]
          +0.002*[#  12]+0.001*[#  15]+0.001*[#  16]+0.001*[#  10]
    |psi|^2 = 0.817
==== e(   4) =    14.85526 eV ==== 
     psi = 0.246*[#   2]+0.246*[#   3]+0.246*[#   4]+0.006*[#   5]+0.006*[#   6]
          +0.006*[#   7]+0.006*[#   8]+0.006*[#   9]+0.004*[#  10]+0.003*[#  15]
          +0.003*[#  16]+0.002*[#  11]+0.002*[#  12]
    |psi|^2 = 0.782
==== e(   5) =    17.94017 eV ==== 
     psi = 0.182*[#   5]+0.182*[#   8]+0.050*[#   2]+0.050*[#   3]+0.050*[#   4]
          +0.031*[#  13]+0.019*[#  11]+0.019*[#  12]+0.019*[#   6]+0.019*[#   7]
          +0.019*[#   9]+0.012*[#  15]+0.012*[#  16]
    |psi|^2 = 0.663

 k =  -0.0500000000 -0.1000000000  0.2000000000
==== e(   1) =    -2.55482 eV ==== 
     psi = 0.806*[#   1]+0.042*[#   5]+0.042*[#   8]+0.031*[#   6]+0.031*[#   7]
          +0.031*[#   9]+0.003*[#   2]+0.003*[#   3]+0.003*[#   4]
    |psi|^2 = 0.993
==== e(   2) =    12.61309 eV ==== 
     psi = 0.139*[#   2]+0.139*[#   3]+0.139*[#   4]+0.097*[#   6]+0.097*[#   7]
          +0.097*[#   9]+0.034*[#   5]+0.034*[#   8]+0.014*[#   1]+0.003*[#  13]
          +0.002*[#  11]+0.002*[#  12]+0.002*[#  15]+0.002*[#  16]
    |psi|^2 = 0.805
==== e(   3) =    13.25950 eV ==== 
     psi = 0.178*[#   2]+0.178*[#   3]+0.178*[#   4]+0.073*[#   6]+0.073*[#   7]
          +0.073*[#   9]+0.010*[#   5]+0.010*[#   8]+0.002*[#  14]+0.001*[#  13]
          +0.001*[#   1]
    |psi|^2 = 0.784
==== e(   4) =    14.46174 eV ==== 
     psi = 0.225*[#   2]+0.225*[#   3]+0.225*[#   4]+0.014*[#   6]+0.014*[#   7]
          +0.014*[#   9]+0.011*[#   5]+0.011*[#   8]+0.005*[#  10]+0.004*[#  15]
          +0.004*[#  16]+0.003*[#  11]+0.003*[#  12]+0.001*[#  13]
    |psi|^2 = 0.759
==== e(   5) =    17.42286 eV ==== 
     psi = 0.192*[#   5]+0.192*[#   8]+0.076*[#   2]+0.076*[#   3]+0.076*[#   4]
          +0.025*[#  13]+0.016*[#  11]+0.016*[#  12]+0.010*[#  15]+0.010*[#  16]
          +0.009*[#   1]+0.007*[#   6]+0.007*[#   7]+0.007*[#   9]
    |psi|^2 = 0.720

 k =  -0.0500000000 -0.1500000000  0.2500000000
==== e(   1) =    -2.21538 eV ==== 
     psi = 0.606*[#   1]+0.075*[#   5]+0.075*[#   8]+0.074*[#   6]+0.074*[#   7]
          +0.074*[#   9]+0.005*[#   2]+0.005*[#   3]+0.005*[#   4]
    |psi|^2 = 0.993
==== e(   2) =    11.02562 eV ==== 
     psi = 0.119*[#   2]+0.119*[#   3]+0.119*[#   4]+0.073*[#   6]+0.073*[#   7]
          +0.073*[#   9]+0.049*[#   1]+0.040*[#   5]+0.040*[#   8]+0.005*[#  13]
          +0.004*[#  11]+0.004*[#  12]+0.002*[#  15]+0.002*[#  16]
    |psi|^2 = 0.721
==== e(   3) =    12.58119 eV ==== 
     psi = 0.174*[#   2]+0.174*[#   3]+0.174*[#   4]+0.073*[#   6]+0.073*[#   7]
          +0.073*[#   9]+0.010*[#   5]+0.010*[#   8]+0.005*[#  14]+0.001*[#  13]
          
    |psi|^2 = 0.773
==== e(   4) =    13.99920 eV ==== 
     psi = 0.203*[#   2]+0.203*[#   3]+0.203*[#   4]+0.021*[#   5]+0.021*[#   8]
          +0.021*[#   6]+0.021*[#   7]+0.021*[#   9]+0.006*[#  10]+0.005*[#  15]
          +0.005*[#  16]+0.004*[#  11]+0.004*[#  12]+0.003*[#  13]+0.001*[#  14]
          
    |psi|^2 = 0.744
==== e(   5) =    17.18304 eV ==== 
     psi = 0.167*[#   5]+0.167*[#   8]+0.069*[#   2]+0.069*[#   3]+0.069*[#   4]
          +0.037*[#   1]+0.021*[#  13]+0.018*[#   6]+0.018*[#   7]+0.018*[#   9]
          +0.013*[#  11]+0.013*[#  12]+0.008*[#  15]+0.008*[#  16]
    |psi|^2 = 0.697

 k =  -0.0500000000 -0.2000000000  0.3000000000
==== e(   1) =    -1.78058 eV ==== 
     psi = 0.378*[#   1]+0.127*[#   6]+0.127*[#   7]+0.127*[#   9]+0.105*[#   5]
          +0.105*[#   8]+0.007*[#   2]+0.007*[#   3]+0.007*[#   4]
    |psi|^2 = 0.990
==== e(   2) =     9.42771 eV ==== 
     psi = 0.111*[#   2]+0.111*[#   3]+0.111*[#   4]+0.016*[#   5]+0.016*[#   8]
          +0.007*[#   6]+0.007*[#   7]+0.007*[#   9]+0.007*[#  13]+0.004*[#  11]
          +0.004*[#  12]+0.003*[#  15]+0.003*[#  16]
    |psi|^2 = 0.405
==== e(   3) =    11.97789 eV ==== 
     psi = 0.174*[#   2]+0.174*[#   3]+0.174*[#   4]+0.073*[#   6]+0.073*[#   7]
          +0.073*[#   9]+0.010*[#   5]+0.010*[#   8]+0.010*[#  14]+0.001*[#  13]
          
    |psi|^2 = 0.774
==== e(   4) =    13.52616 eV ==== 
     psi = 0.186*[#   2]+0.186*[#   3]+0.186*[#   4]+0.033*[#   5]+0.033*[#   8]
          +0.026*[#   6]+0.026*[#   7]+0.026*[#   9]+0.007*[#  10]+0.006*[#  15]
          +0.006*[#  16]+0.005*[#  11]+0.005*[#  12]+0.004*[#  13]+0.002*[#  14]
          
    |psi|^2 = 0.740
==== e(   5) =    16.79528 eV ==== 
     psi = 0.169*[#   6]+0.169*[#   7]+0.169*[#   9]+0.030*[#   5]+0.030*[#   8]
          +0.027*[#   2]+0.027*[#   3]+0.027*[#   4]+0.023*[#   1]+0.010*[#  13]
          +0.007*[#  11]+0.007*[#  12]+0.005*[#  15]+0.005*[#  16]+0.002*[#  14]
          +0.001*[#  10]
    |psi|^2 = 0.711

 k =  -0.0500000000 -0.2500000000  0.3500000000
==== e(   1) =    -1.25463 eV ==== 
     psi = 0.178*[#   1]+0.175*[#   6]+0.175*[#   7]+0.175*[#   9]+0.128*[#   5]
          +0.128*[#   8]+0.009*[#   2]+0.009*[#   3]+0.009*[#   4]
    |psi|^2 = 0.986
==== e(   2) =     7.90645 eV ==== 
     psi = 0.263*[#   1]+0.088*[#   2]+0.088*[#   3]+0.088*[#   4]+0.009*[#   6]
          +0.009*[#   7]+0.009*[#   9]+0.005*[#   5]+0.005*[#   8]+0.005*[#  13]
          +0.003*[#  11]+0.003*[#  12]+0.002*[#  15]+0.002*[#  16]
    |psi|^2 = 0.580
==== e(   3) =    11.46974 eV ==== 
     psi = 0.175*[#   2]+0.175*[#   3]+0.175*[#   4]+0.072*[#   6]+0.072*[#   7]
          +0.072*[#   9]+0.014*[#  14]+0.008*[#   5]+0.008*[#   8]+0.002*[#   1]
          +0.001*[#  13]
    |psi|^2 = 0.780
==== e(   4) =    13.09536 eV ==== 
     psi = 0.175*[#   2]+0.175*[#   3]+0.175*[#   4]+0.043*[#   5]+0.043*[#   8]
          +0.031*[#   6]+0.031*[#   7]+0.031*[#   9]+0.008*[#  10]+0.007*[#  15]
          +0.007*[#  16]+0.006*[#  11]+0.006*[#  12]+0.006*[#  13]+0.003*[#  14]
          
    |psi|^2 = 0.747
==== e(   5) =    16.31118 eV ==== 
     psi = 0.208*[#   6]+0.208*[#   7]+0.208*[#   9]+0.029*[#   2]+0.029*[#   3]
          +0.029*[#   4]+0.015*[#   5]+0.015*[#   8]+0.007*[#  13]+0.005*[#  11]
          +0.005*[#  12]+0.005*[#   1]+0.004*[#  15]+0.004*[#  16]+0.003*[#  14]
          +0.002*[#  10]
    |psi|^2 = 0.775

 k =  -0.0500000000 -0.3000000000  0.4000000000
==== e(   1) =    -0.64875 eV ==== 
     psi = 0.198*[#   6]+0.198*[#   7]+0.198*[#   9]+0.136*[#   5]+0.136*[#   8]
          +0.078*[#   1]+0.013*[#   2]+0.013*[#   3]+0.013*[#   4]
    |psi|^2 = 0.983
==== e(   2) =     6.50793 eV ==== 
     psi = 0.469*[#   1]+0.070*[#   2]+0.070*[#   3]+0.070*[#   4]+0.013*[#   5]
          +0.013*[#   8]+0.011*[#   6]+0.011*[#   7]+0.011*[#   9]+0.003*[#  13]
          +0.002*[#  11]+0.002*[#  12]+0.001*[#  15]+0.001*[#  16]
    |psi|^2 = 0.746
==== e(   3) =    11.06748 eV ==== 
     psi = 0.179*[#   2]+0.179*[#   3]+0.179*[#   4]+0.065*[#   6]+0.065*[#   7]
          +0.065*[#   9]+0.019*[#  14]+0.005*[#   5]+0.005*[#   8]+0.005*[#   1]
          
    |psi|^2 = 0.772
==== e(   4) =    12.73921 eV ==== 
     psi = 0.169*[#   2]+0.169*[#   3]+0.169*[#   4]+0.042*[#   5]+0.042*[#   8]
          +0.035*[#   6]+0.035*[#   7]+0.035*[#   9]+0.009*[#  10]+0.008*[#  15]
          +0.008*[#  16]+0.007*[#  11]+0.007*[#  12]+0.007*[#  13]+0.004*[#  14]
          
    |psi|^2 = 0.745
==== e(   5) =    15.91510 eV ==== 
     psi = 0.227*[#   6]+0.227*[#   7]+0.227*[#   9]+0.030*[#   2]+0.030*[#   3]
          +0.030*[#   4]+0.014*[#   5]+0.014*[#   8]+0.005*[#  13]+0.004*[#  11]
          +0.004*[#  12]+0.003*[#  14]+0.003*[#  15]+0.003*[#  16]+0.002*[#   1]
          +0.002*[#  10]
    |psi|^2 = 0.824

 k =  -0.0500000000 -0.3500000000  0.4500000000
==== e(   1) =     0.00599 eV ==== 
     psi = 0.200*[#   6]+0.200*[#   7]+0.200*[#   9]+0.133*[#   5]+0.133*[#   8]
          +0.025*[#   2]+0.025*[#   3]+0.025*[#   4]+0.017*[#   1]
    |psi|^2 = 0.960
==== e(   2) =     5.27900 eV ==== 
     psi = 0.549*[#   1]+0.057*[#   2]+0.057*[#   3]+0.057*[#   4]+0.009*[#   5]
          +0.009*[#   8]+0.002*[#   6]+0.002*[#   7]+0.002*[#   9]+0.002*[#  13]
          +0.001*[#  11]+0.001*[#  12]
    |psi|^2 = 0.750
==== e(   3) =    10.77655 eV ==== 
     psi = 0.183*[#   2]+0.183*[#   3]+0.183*[#   4]+0.049*[#   6]+0.049*[#   7]
          +0.049*[#   9]+0.023*[#  14]+0.012*[#   1]+0.003*[#   5]+0.003*[#   8]
          +0.001*[#  10]+0.001*[#  15]+0.001*[#  16]
    |psi|^2 = 0.743
==== e(   4) =    12.47565 eV ==== 
     psi = 0.167*[#   2]+0.167*[#   3]+0.167*[#   4]+0.032*[#   6]+0.032*[#   7]
          +0.032*[#   9]+0.025*[#   5]+0.025*[#   8]+0.010*[#  10]+0.009*[#  15]
          +0.009*[#  16]+0.008*[#  11]+0.008*[#  12]+0.007*[#  13]+0.004*[#   1]
          +0.004*[#  14]
    |psi|^2 = 0.705
==== e(   5) =    15.62590 eV ==== 
     psi = 0.236*[#   6]+0.236*[#   7]+0.236*[#   9]+0.030*[#   2]+0.030*[#   3]
          +0.030*[#   4]+0.012*[#   5]+0.012*[#   8]+0.004*[#   1]+0.003*[#  13]
          +0.003*[#  14]+0.003*[#  11]+0.003*[#  12]+0.003*[#  15]+0.003*[#  16]
          +0.002*[#  10]
    |psi|^2 = 0.847

 k =  -0.0500000000 -0.4000000000  0.5000000000
==== e(   1) =     0.61420 eV ==== 
     psi = 0.139*[#   6]+0.139*[#   7]+0.139*[#   9]+0.123*[#   5]+0.123*[#   8]
          +0.059*[#   2]+0.059*[#   3]+0.059*[#   4]
    |psi|^2 = 0.841
==== e(   2) =     4.32392 eV ==== 
     psi = 0.366*[#   1]+0.069*[#   6]+0.069*[#   7]+0.069*[#   9]+0.062*[#   5]
          +0.062*[#   8]+0.034*[#   2]+0.034*[#   3]+0.034*[#   4]+0.001*[#  13]
          
    |psi|^2 = 0.806
==== e(   3) =    10.60107 eV ==== 
     psi = 0.186*[#   2]+0.186*[#   3]+0.186*[#   4]+0.035*[#   6]+0.035*[#   7]
          +0.035*[#   9]+0.025*[#  14]+0.017*[#   1]+0.001*[#  10]+0.001*[#  15]
          +0.001*[#  16]
    |psi|^2 = 0.710
==== e(   4) =    12.31441 eV ==== 
     psi = 0.165*[#   2]+0.165*[#   3]+0.165*[#   4]+0.028*[#   6]+0.028*[#   7]
          +0.028*[#   9]+0.011*[#  10]+0.010*[#   5]+0.010*[#   8]+0.009*[#  15]
          +0.009*[#  16]+0.009*[#  11]+0.009*[#  12]+0.007*[#   1]+0.007*[#  13]
          +0.005*[#  14]
    |psi|^2 = 0.667
==== e(   5) =    15.45034 eV ==== 
     psi = 0.236*[#   6]+0.236*[#   7]+0.236*[#   9]+0.030*[#   2]+0.030*[#   3]
          +0.030*[#   4]+0.010*[#   1]+0.007*[#   5]+0.007*[#   8]+0.003*[#  14]
          +0.002*[#  11]+0.002*[#  12]+0.002*[#  13]+0.002*[#  10]+0.002*[#  15]
          +0.002*[#  16]
    |psi|^2 = 0.842

 k =  -0.0500000000  0.5500000000 -0.4500000000
==== e(   1) =     0.90405 eV ==== 
     psi = 0.137*[#   5]+0.137*[#   8]+0.097*[#   2]+0.097*[#   3]+0.097*[#   4]
          +0.051*[#   6]+0.051*[#   7]+0.051*[#   9]+0.001*[#  13]
    |psi|^2 = 0.722
==== e(   2) =     3.91794 eV ==== 
     psi = 0.185*[#   6]+0.185*[#   7]+0.185*[#   9]+0.169*[#   1]+0.128*[#   5]
          +0.128*[#   8]+0.004*[#   2]+0.004*[#   3]+0.004*[#   4]
    |psi|^2 = 0.991
==== e(   3) =    10.54201 eV ==== 
     psi = 0.186*[#   2]+0.186*[#   3]+0.186*[#   4]+0.032*[#   6]+0.032*[#   7]
          +0.032*[#   9]+0.025*[#  14]+0.013*[#   1]+0.001*[#  10]+0.001*[#  15]
          +0.001*[#  16]
    |psi|^2 = 0.698
==== e(   4) =    12.26008 eV ==== 
     psi = 0.165*[#   2]+0.165*[#   3]+0.165*[#   4]+0.027*[#   6]+0.027*[#   7]
          +0.027*[#   9]+0.011*[#  10]+0.010*[#  15]+0.010*[#  16]+0.009*[#  11]
          +0.009*[#  12]+0.007*[#  13]+0.007*[#   1]+0.005*[#   5]+0.005*[#   8]
          +0.005*[#  14]
    |psi|^2 = 0.655
==== e(   5) =    15.39149 eV ==== 
     psi = 0.236*[#   6]+0.236*[#   7]+0.236*[#   9]+0.030*[#   2]+0.030*[#   3]
          +0.030*[#   4]+0.010*[#   1]+0.004*[#   5]+0.004*[#   8]+0.003*[#  14]
          +0.002*[#  10]+0.002*[#  11]+0.002*[#  12]+0.002*[#  15]+0.002*[#  16]
          +0.002*[#  13]
    |psi|^2 = 0.831

 k =  -0.1000000000  0.1000000000  0.0500000000
==== e(   1) =    -2.84622 eV ==== 
     psi = 0.954*[#   1]+0.010*[#   6]+0.010*[#   7]+0.010*[#   9]+0.002*[#   5]
          +0.002*[#   8]+0.001*[#   2]+0.001*[#   3]+0.001*[#   4]
    |psi|^2 = 0.993
==== e(   2) =    14.04742 eV ==== 
     psi = 0.194*[#   2]+0.194*[#   3]+0.194*[#   4]+0.062*[#   6]+0.062*[#   7]
          +0.062*[#   9]+0.009*[#   5]+0.009*[#   8]+0.001*[#  10]+0.001*[#  11]
          +0.001*[#  12]+0.001*[#  15]+0.001*[#  16]+0.001*[#  13]
    |psi|^2 = 0.795
==== e(   3) =    14.41246 eV ==== 
     psi = 0.216*[#   2]+0.216*[#   3]+0.216*[#   4]+0.045*[#   6]+0.045*[#   7]
          +0.045*[#   9]+0.007*[#   5]+0.007*[#   8]+0.002*[#  10]+0.001*[#  15]
          +0.001*[#  16]+0.001*[#  11]+0.001*[#  12]
    |psi|^2 = 0.806
==== e(   4) =    14.81473 eV ==== 
     psi = 0.232*[#   2]+0.232*[#   3]+0.232*[#   4]+0.023*[#   6]+0.023*[#   7]
          +0.023*[#   9]+0.011*[#   5]+0.011*[#   8]+0.004*[#  10]+0.003*[#  15]
          +0.003*[#  16]+0.002*[#  11]+0.002*[#  12]+0.001*[#  13]
    |psi|^2 = 0.803
==== e(   5) =    18.36700 eV ==== 
     psi = 0.096*[#   5]+0.096*[#   8]+0.069*[#   2]+0.069*[#   3]+0.069*[#   4]
          +0.051*[#   6]+0.051*[#   7]+0.051*[#   9]+0.029*[#  13]+0.018*[#  11]
          +0.018*[#  12]+0.011*[#  15]+0.011*[#  16]+0.008*[#   1]
    |psi|^2 = 0.649

 k =  -0.1000000000 -0.1000000000  0.2500000000
==== e(   1) =    -2.26336 eV ==== 
     psi = 0.638*[#   1]+0.076*[#   5]+0.076*[#   8]+0.063*[#   6]+0.063*[#   7]
          +0.063*[#   9]+0.005*[#   2]+0.005*[#   3]+0.005*[#   4]
    |psi|^2 = 0.993
==== e(   2) =    11.67493 eV ==== 
     psi = 0.116*[#   2]+0.116*[#   3]+0.116*[#   4]+0.109*[#   6]+0.109*[#   7]
          +0.109*[#   9]+0.061*[#   5]+0.061*[#   8]+0.005*[#  13]+0.003*[#  11]
          +0.003*[#  12]+0.002*[#  15]+0.002*[#  16]
    |psi|^2 = 0.814
==== e(   3) =    12.09491 eV ==== 
     psi = 0.156*[#   2]+0.156*[#   3]+0.156*[#   4]+0.078*[#   6]+0.078*[#   7]
          +0.078*[#   9]+0.025*[#   1]+0.004*[#   5]+0.004*[#   8]+0.004*[#  14]
          +0.002*[#  13]+0.001*[#  11]+0.001*[#  12]+0.001*[#  15]+0.001*[#  16]
          
    |psi|^2 = 0.749
==== e(   4) =    13.99331 eV ==== 
     psi = 0.212*[#   2]+0.212*[#   3]+0.212*[#   4]+0.028*[#   6]+0.028*[#   7]
          +0.028*[#   9]+0.007*[#   5]+0.007*[#   8]+0.005*[#  10]+0.004*[#  15]
          +0.004*[#  16]+0.003*[#  11]+0.003*[#  12]+0.002*[#  14]+0.002*[#  13]
          +0.001*[#   1]
    |psi|^2 = 0.755
==== e(   5) =    17.12308 eV ==== 
     psi = 0.197*[#   5]+0.197*[#   8]+0.086*[#   2]+0.086*[#   3]+0.086*[#   4]
          +0.023*[#  13]+0.014*[#  11]+0.014*[#  12]+0.009*[#  15]+0.009*[#  16]
          +0.001*[#   6]+0.001*[#   7]+0.001*[#   9]
    |psi|^2 = 0.725

 k =  -0.1000000000 -0.1500000000  0.3000000000
==== e(   1) =    -1.87529 eV ==== 
     psi = 0.449*[#   1]+0.106*[#   5]+0.106*[#   8]+0.104*[#   6]+0.104*[#   7]
          +0.104*[#   9]+0.007*[#   2]+0.007*[#   3]+0.007*[#   4]
    |psi|^2 = 0.993
==== e(   2) =    10.20720 eV ==== 
     psi = 0.112*[#   2]+0.112*[#   3]+0.112*[#   4]+0.061*[#   6]+0.061*[#   7]
          +0.061*[#   9]+0.039*[#   5]+0.039*[#   8]+0.015*[#   1]+0.006*[#  13]
          +0.004*[#  11]+0.004*[#  12]+0.003*[#  15]+0.003*[#  16]
    |psi|^2 = 0.633
==== e(   3) =    11.36514 eV ==== 
     psi = 0.145*[#   2]+0.145*[#   3]+0.145*[#   4]+0.078*[#   6]+0.078*[#   7]
          +0.078*[#   9]+0.015*[#   5]+0.015*[#   8]+0.014*[#   1]+0.006*[#  14]
          +0.002*[#  13]+0.002*[#  11]+0.002*[#  12]+0.002*[#  15]+0.002*[#  16]
          +0.001*[#  10]
    |psi|^2 = 0.730
==== e(   4) =    13.51340 eV ==== 
     psi = 0.199*[#   2]+0.199*[#   3]+0.199*[#   4]+0.037*[#   6]+0.037*[#   7]
          +0.037*[#   9]+0.009*[#   5]+0.009*[#   8]+0.005*[#  10]+0.004*[#  14]
          +0.004*[#  15]+0.004*[#  16]+0.003*[#  11]+0.003*[#  12]+0.003*[#   1]
          +0.002*[#  13]
    |psi|^2 = 0.754
==== e(   5) =    17.00379 eV ==== 
     psi = 0.178*[#   5]+0.178*[#   8]+0.079*[#   2]+0.079*[#   3]+0.079*[#   4]
          +0.021*[#  13]+0.014*[#  11]+0.014*[#  12]+0.009*[#  15]+0.009*[#  16]
          +0.008*[#   1]+0.006*[#   6]+0.006*[#   7]+0.006*[#   9]+0.001*[#  10]
          
    |psi|^2 = 0.684

 k =  -0.1000000000 -0.2000000000  0.3500000000
==== e(   1) =    -1.39273 eV ==== 
     psi = 0.253*[#   1]+0.150*[#   6]+0.150*[#   7]+0.150*[#   9]+0.128*[#   5]
          +0.128*[#   8]+0.009*[#   2]+0.009*[#   3]+0.009*[#   4]
    |psi|^2 = 0.987
==== e(   2) =     8.67734 eV ==== 
     psi = 0.106*[#   2]+0.106*[#   3]+0.106*[#   4]+0.050*[#   1]+0.006*[#  13]
          +0.005*[#   5]+0.005*[#   8]+0.004*[#  11]+0.004*[#  12]+0.002*[#  15]
          +0.002*[#  16]
    |psi|^2 = 0.399
==== e(   3) =    10.80550 eV ==== 
     psi = 0.139*[#   2]+0.139*[#   3]+0.139*[#   4]+0.078*[#   6]+0.078*[#   7]
          +0.078*[#   9]+0.021*[#   5]+0.021*[#   8]+0.008*[#  14]+0.002*[#  13]
          +0.002*[#  11]+0.002*[#  12]+0.002*[#  15]+0.002*[#  16]+0.001*[#  10]
          
    |psi|^2 = 0.712
==== e(   4) =    13.05687 eV ==== 
     psi = 0.189*[#   2]+0.189*[#   3]+0.189*[#   4]+0.042*[#   6]+0.042*[#   7]
          +0.042*[#   9]+0.017*[#   5]+0.017*[#   8]+0.007*[#  14]+0.005*[#  10]
          +0.004*[#  15]+0.004*[#  16]+0.004*[#  11]+0.004*[#  12]+0.003*[#  13]
          +0.002*[#   1]
    |psi|^2 = 0.759
==== e(   5) =    16.94791 eV ==== 
     psi = 0.120*[#   5]+0.120*[#   8]+0.052*[#   6]+0.052*[#   7]+0.052*[#   9]
          +0.049*[#   2]+0.049*[#   3]+0.049*[#   4]+0.017*[#  13]+0.012*[#  11]
          +0.012*[#  12]+0.008*[#  15]+0.008*[#  16]+0.006*[#   1]+0.002*[#  10]
          
    |psi|^2 = 0.610

 k =  -0.1000000000 -0.2500000000  0.4000000000
==== e(   1) =    -0.82188 eV ==== 
     psi = 0.182*[#   6]+0.182*[#   7]+0.182*[#   9]+0.140*[#   5]+0.140*[#   8]
          +0.122*[#   1]+0.012*[#   2]+0.012*[#   3]+0.012*[#   4]
    |psi|^2 = 0.985
==== e(   2) =     7.22785 eV ==== 
     psi = 0.286*[#   1]+0.086*[#   2]+0.086*[#   3]+0.086*[#   4]+0.022*[#   6]
          +0.022*[#   7]+0.022*[#   9]+0.017*[#   5]+0.017*[#   8]+0.004*[#  13]
          +0.002*[#  11]+0.002*[#  12]+0.002*[#  15]+0.002*[#  16]
    |psi|^2 = 0.656
==== e(   3) =    10.35653 eV ==== 
     psi = 0.137*[#   2]+0.137*[#   3]+0.137*[#   4]+0.068*[#   6]+0.068*[#   7]
          +0.068*[#   9]+0.016*[#   5]+0.016*[#   8]+0.012*[#   1]+0.011*[#  14]
          +0.002*[#  13]+0.002*[#  11]+0.002*[#  12]+0.002*[#  15]+0.002*[#  16]
          +0.002*[#  10]
    |psi|^2 = 0.684
==== e(   4) =    12.66072 eV ==== 
     psi = 0.182*[#   2]+0.182*[#   3]+0.182*[#   4]+0.046*[#   6]+0.046*[#   7]
          +0.046*[#   9]+0.024*[#   5]+0.024*[#   8]+0.009*[#  14]+0.006*[#  10]
          +0.005*[#  15]+0.005*[#  16]+0.004*[#  11]+0.004*[#  12]+0.004*[#  13]
          
    |psi|^2 = 0.771
==== e(   5) =    16.81489 eV ==== 
     psi = 0.131*[#   6]+0.131*[#   7]+0.131*[#   9]+0.072*[#   5]+0.072*[#   8]
          +0.025*[#   2]+0.025*[#   3]+0.025*[#   4]+0.011*[#  13]+0.008*[#  11]
          +0.008*[#  12]+0.006*[#  15]+0.006*[#  16]+0.003*[#  10]+0.002*[#   1]
          +0.002*[#  14]
    |psi|^2 = 0.660

 k =  -0.1000000000 -0.3000000000  0.4500000000
==== e(   1) =    -0.17992 eV ==== 
     psi = 0.197*[#   6]+0.197*[#   7]+0.197*[#   9]+0.141*[#   5]+0.141*[#   8]
          +0.049*[#   1]+0.019*[#   2]+0.019*[#   3]+0.019*[#   4]
    |psi|^2 = 0.978
==== e(   2) =     5.91116 eV ==== 
     psi = 0.421*[#   1]+0.070*[#   2]+0.070*[#   3]+0.070*[#   4]+0.021*[#   5]
          +0.021*[#   8]+0.021*[#   6]+0.021*[#   7]+0.021*[#   9]+0.002*[#  13]
          +0.002*[#  11]+0.002*[#  12]
    |psi|^2 = 0.746
==== e(   3) =    10.01731 eV ==== 
     psi = 0.138*[#   2]+0.138*[#   3]+0.138*[#   4]+0.053*[#   6]+0.053*[#   7]
          +0.053*[#   9]+0.027*[#   1]+0.013*[#  14]+0.009*[#   5]+0.009*[#   8]
          +0.002*[#  10]+0.002*[#  11]+0.002*[#  12]+0.002*[#  15]+0.002*[#  16]
          +0.002*[#  13]
    |psi|^2 = 0.642
==== e(   4) =    12.34901 eV ==== 
     psi = 0.179*[#   2]+0.179*[#   3]+0.179*[#   4]+0.047*[#   6]+0.047*[#   7]
          +0.047*[#   9]+0.023*[#   5]+0.023*[#   8]+0.011*[#  14]+0.006*[#  10]
          +0.005*[#  15]+0.005*[#  16]+0.005*[#  11]+0.005*[#  12]+0.004*[#  13]
          
    |psi|^2 = 0.766
==== e(   5) =    16.63015 eV ==== 
     psi = 0.176*[#   6]+0.176*[#   7]+0.176*[#   9]+0.054*[#   5]+0.054*[#   8]
          +0.019*[#   2]+0.019*[#   3]+0.019*[#   4]+0.007*[#  13]+0.006*[#  11]
          +0.006*[#  12]+0.005*[#  15]+0.005*[#  16]+0.004*[#   1]+0.004*[#  10]
          +0.003*[#  14]
    |psi|^2 = 0.731

 k =  -0.1000000000 -0.3500000000  0.5000000000
==== e(   1) =     0.48197 eV ==== 
     psi = 0.180*[#   6]+0.180*[#   7]+0.180*[#   9]+0.136*[#   5]+0.136*[#   8]
          +0.038*[#   2]+0.038*[#   3]+0.038*[#   4]+0.002*[#   1]
    |psi|^2 = 0.927
==== e(   2) =     4.79342 eV ==== 
     psi = 0.505*[#   1]+0.056*[#   2]+0.056*[#   3]+0.056*[#   4]+0.012*[#   6]
          +0.012*[#   7]+0.012*[#   9]+0.011*[#   5]+0.011*[#   8]+0.002*[#  13]
          +0.001*[#  11]+0.001*[#  12]
    |psi|^2 = 0.736
==== e(   3) =     9.78994 eV ==== 
     psi = 0.137*[#   2]+0.137*[#   3]+0.137*[#   4]+0.050*[#   1]+0.037*[#   6]
          +0.037*[#   7]+0.037*[#   9]+0.014*[#  14]+0.003*[#   5]+0.003*[#   8]
          +0.003*[#  10]+0.002*[#  15]+0.002*[#  16]+0.002*[#  11]+0.002*[#  12]
          +0.002*[#  13]
    |psi|^2 = 0.605
==== e(   4) =    12.13541 eV ==== 
     psi = 0.178*[#   2]+0.178*[#   3]+0.178*[#   4]+0.040*[#   6]+0.040*[#   7]
          +0.040*[#   9]+0.014*[#   5]+0.014*[#   8]+0.012*[#  14]+0.007*[#  10]
          +0.006*[#  15]+0.006*[#  16]+0.005*[#  11]+0.005*[#  12]+0.004*[#  13]
          
    |psi|^2 = 0.727
==== e(   5) =    16.47748 eV ==== 
     psi = 0.197*[#   6]+0.197*[#   7]+0.197*[#   9]+0.045*[#   5]+0.045*[#   8]
          +0.019*[#   1]+0.018*[#   2]+0.018*[#   3]+0.018*[#   4]+0.005*[#  13]
          +0.005*[#  11]+0.005*[#  12]+0.004*[#  15]+0.004*[#  16]+0.004*[#  10]
          +0.003*[#  14]
    |psi|^2 = 0.782

 k =  -0.1000000000  0.6000000000 -0.4500000000
==== e(   1) =     0.99586 eV ==== 
     psi = 0.154*[#   5]+0.154*[#   8]+0.113*[#   6]+0.113*[#   7]+0.113*[#   9]
          +0.075*[#   2]+0.075*[#   3]+0.075*[#   4]
    |psi|^2 = 0.873
==== e(   2) =     4.05029 eV ==== 
     psi = 0.212*[#   1]+0.150*[#   6]+0.150*[#   7]+0.150*[#   9]+0.105*[#   5]
          +0.105*[#   8]+0.022*[#   2]+0.022*[#   3]+0.022*[#   4]
    |psi|^2 = 0.936
==== e(   3) =     9.67563 eV ==== 
     psi = 0.137*[#   2]+0.137*[#   3]+0.137*[#   4]+0.041*[#   1]+0.031*[#   6]
          +0.031*[#   7]+0.031*[#   9]+0.015*[#  14]+0.003*[#  10]+0.002*[#  15]
          +0.002*[#  16]+0.002*[#  11]+0.002*[#  12]+0.002*[#   5]+0.002*[#   8]
          +0.001*[#  13]
    |psi|^2 = 0.576
==== e(   4) =    12.02714 eV ==== 
     psi = 0.177*[#   2]+0.177*[#   3]+0.177*[#   4]+0.033*[#   6]+0.033*[#   7]
          +0.033*[#   9]+0.013*[#  14]+0.010*[#   5]+0.010*[#   8]+0.007*[#  10]
          +0.006*[#  15]+0.006*[#  16]+0.005*[#  11]+0.005*[#  12]+0.004*[#  13]
          
    |psi|^2 = 0.698
==== e(   5) =    16.39470 eV ==== 
     psi = 0.207*[#   6]+0.207*[#   7]+0.207*[#   9]+0.042*[#   1]+0.024*[#   5]
          +0.024*[#   8]+0.017*[#   2]+0.017*[#   3]+0.017*[#   4]+0.004*[#  11]
          +0.004*[#  12]+0.004*[#  13]+0.004*[#  10]+0.004*[#  15]+0.004*[#  16]
          +0.003*[#  14]
    |psi|^2 = 0.789

 k =  -0.1500000000  0.1500000000  0.0500000000
==== e(   1) =    -2.60382 eV ==== 
     psi = 0.840*[#   1]+0.038*[#   6]+0.038*[#   7]+0.038*[#   9]+0.015*[#   5]
          +0.015*[#   8]+0.003*[#   2]+0.003*[#   3]+0.003*[#   4]
    |psi|^2 = 0.993
==== e(   2) =    12.63865 eV ==== 
     psi = 0.138*[#   2]+0.138*[#   3]+0.138*[#   4]+0.096*[#   6]+0.096*[#   7]
          +0.096*[#   9]+0.032*[#   5]+0.032*[#   8]+0.021*[#   1]+0.004*[#  13]
          +0.003*[#  11]+0.003*[#  12]+0.002*[#  15]+0.002*[#  16]
    |psi|^2 = 0.801
==== e(   3) =    13.68284 eV ==== 
     psi = 0.206*[#   2]+0.206*[#   3]+0.206*[#   4]+0.044*[#   6]+0.044*[#   7]
          +0.044*[#   9]+0.004*[#   5]+0.004*[#   8]+0.004*[#  14]
    |psi|^2 = 0.764
==== e(   4) =    14.35313 eV ==== 
     psi = 0.201*[#   2]+0.201*[#   3]+0.201*[#   4]+0.037*[#   6]+0.037*[#   7]
          +0.037*[#   9]+0.021*[#   5]+0.021*[#   8]+0.005*[#  10]+0.004*[#  15]
          +0.004*[#  16]+0.004*[#  11]+0.004*[#  12]+0.003*[#  13]
    |psi|^2 = 0.781
==== e(   5) =    17.77559 eV ==== 
     psi = 0.147*[#   6]+0.147*[#   7]+0.147*[#   9]+0.045*[#   2]+0.045*[#   3]
          +0.045*[#   4]+0.015*[#  13]+0.010*[#  11]+0.010*[#  12]+0.009*[#   5]
          +0.009*[#   8]+0.006*[#  15]+0.006*[#  16]
    |psi|^2 = 0.641

 k =  -0.1500000000  0.1000000000  0.1000000000
==== e(   1) =    -2.65235 eV ==== 
     psi = 0.870*[#   1]+0.035*[#   6]+0.035*[#   7]+0.035*[#   9]+0.006*[#   5]
          +0.006*[#   8]+0.002*[#   2]+0.002*[#   3]+0.002*[#   4]
    |psi|^2 = 0.993
==== e(   2) =    13.36618 eV ==== 
     psi = 0.185*[#   2]+0.185*[#   3]+0.185*[#   4]+0.060*[#   6]+0.060*[#   7]
          +0.060*[#   9]+0.004*[#   1]+0.004*[#   5]+0.004*[#   8]+0.003*[#  14]
          
    |psi|^2 = 0.754
==== e(   3) =    13.41227 eV ==== 
     psi = 0.149*[#   2]+0.149*[#   3]+0.149*[#   4]+0.096*[#   6]+0.096*[#   7]
          +0.096*[#   9]+0.037*[#   5]+0.037*[#   8]+0.004*[#  13]+0.003*[#  11]
          +0.003*[#  12]+0.002*[#  15]+0.002*[#  16]+0.002*[#  10]
    |psi|^2 = 0.827
==== e(   4) =    14.12894 eV ==== 
     psi = 0.191*[#   2]+0.191*[#   3]+0.191*[#   4]+0.058*[#   6]+0.058*[#   7]
          +0.058*[#   9]+0.017*[#   5]+0.017*[#   8]+0.003*[#  10]+0.003*[#  15]
          +0.003*[#  16]+0.003*[#  11]+0.003*[#  12]+0.002*[#  13]
    |psi|^2 = 0.800
==== e(   5) =    18.09342 eV ==== 
     psi = 0.114*[#   2]+0.114*[#   3]+0.114*[#   4]+0.095*[#   5]+0.095*[#   8]
          +0.044*[#   6]+0.044*[#   7]+0.044*[#   9]+0.023*[#  13]+0.014*[#  11]
          +0.014*[#  12]+0.009*[#  15]+0.009*[#  16]
    |psi|^2 = 0.734

 k =  -0.1500000000 -0.1500000000  0.3500000000
==== e(   1) =    -1.43865 eV ==== 
     psi = 0.300*[#   1]+0.137*[#   6]+0.137*[#   7]+0.137*[#   9]+0.125*[#   5]
          +0.125*[#   8]+0.009*[#   2]+0.009*[#   3]+0.009*[#   4]
    |psi|^2 = 0.988
==== e(   2) =     9.17426 eV ==== 
     psi = 0.113*[#   2]+0.113*[#   3]+0.113*[#   4]+0.022*[#   6]+0.022*[#   7]
          +0.022*[#   9]+0.013*[#   5]+0.013*[#   8]+0.007*[#  13]+0.004*[#  11]
          +0.004*[#  12]+0.003*[#  15]+0.003*[#  16]
    |psi|^2 = 0.451
==== e(   3) =    10.30477 eV ==== 
     psi = 0.131*[#   2]+0.131*[#   3]+0.131*[#   4]+0.033*[#   6]+0.033*[#   7]
          +0.033*[#   9]+0.007*[#   5]+0.007*[#   8]+0.006*[#  14]+0.003*[#   1]
          +0.003*[#  13]+0.002*[#  11]+0.002*[#  12]+0.002*[#  15]+0.002*[#  16]
          +0.002*[#  10]
    |psi|^2 = 0.530
==== e(   4) =    13.07655 eV ==== 
     psi = 0.194*[#   2]+0.194*[#   3]+0.194*[#   4]+0.045*[#   6]+0.045*[#   7]
          +0.045*[#   9]+0.008*[#  14]+0.007*[#   1]+0.004*[#   5]+0.004*[#   8]
          +0.004*[#  10]+0.004*[#  15]+0.004*[#  16]+0.003*[#  11]+0.003*[#  12]
          +0.002*[#  13]
    |psi|^2 = 0.760
==== e(   5) =    16.97862 eV ==== 
     psi = 0.147*[#   5]+0.147*[#   8]+0.077*[#   2]+0.077*[#   3]+0.077*[#   4]
          +0.020*[#  13]+0.014*[#  11]+0.014*[#  12]+0.009*[#   6]+0.009*[#   7]
          +0.009*[#   9]+0.009*[#  15]+0.009*[#  16]+0.003*[#  10]
    |psi|^2 = 0.623

 k =  -0.1500000000 -0.2000000000  0.4000000000
==== e(   1) =    -0.90870 eV ==== 
     psi = 0.171*[#   6]+0.171*[#   7]+0.171*[#   9]+0.161*[#   1]+0.134*[#   5]
          +0.134*[#   8]+0.012*[#   2]+0.012*[#   3]+0.012*[#   4]
    |psi|^2 = 0.980
==== e(   2) =     7.87345 eV ==== 
     psi = 0.109*[#   2]+0.109*[#   3]+0.109*[#   4]+0.058*[#   1]+0.016*[#   6]
          +0.016*[#   7]+0.016*[#   9]+0.014*[#   5]+0.014*[#   8]+0.005*[#  13]
          +0.003*[#  11]+0.003*[#  12]+0.002*[#  15]+0.002*[#  16]
    |psi|^2 = 0.476
==== e(   3) =     9.63736 eV ==== 
     psi = 0.115*[#   2]+0.115*[#   3]+0.115*[#   4]+0.037*[#   1]+0.017*[#   6]
          +0.017*[#   7]+0.017*[#   9]+0.012*[#   5]+0.012*[#   8]+0.006*[#  14]
          +0.003*[#  11]+0.003*[#  12]+0.003*[#  13]+0.002*[#  10]+0.002*[#  15]
          +0.002*[#  16]
    |psi|^2 = 0.479
==== e(   4) =    12.68545 eV ==== 
     psi = 0.189*[#   2]+0.189*[#   3]+0.189*[#   4]+0.048*[#   6]+0.048*[#   7]
          +0.048*[#   9]+0.011*[#  14]+0.006*[#   5]+0.006*[#   8]+0.005*[#   1]
          +0.004*[#  10]+0.003*[#  15]+0.003*[#  16]+0.003*[#  11]+0.003*[#  12]
          +0.002*[#  13]
    |psi|^2 = 0.758
==== e(   5) =    17.04537 eV ==== 
     psi = 0.091*[#   5]+0.091*[#   8]+0.064*[#   2]+0.064*[#   3]+0.064*[#   4]
          +0.055*[#   6]+0.055*[#   7]+0.055*[#   9]+0.018*[#  13]+0.013*[#  11]
          +0.013*[#  12]+0.009*[#  15]+0.009*[#  16]+0.004*[#  10]
    |psi|^2 = 0.604

 k =  -0.1500000000 -0.2500000000  0.4500000000
==== e(   1) =    -0.29395 eV ==== 
     psi = 0.192*[#   6]+0.192*[#   7]+0.192*[#   9]+0.135*[#   5]+0.135*[#   8]
          +0.079*[#   1]+0.017*[#   2]+0.017*[#   3]+0.017*[#   4]
    |psi|^2 = 0.975
==== e(   2) =     6.55250 eV ==== 
     psi = 0.174*[#   1]+0.090*[#   2]+0.090*[#   3]+0.090*[#   4]+0.055*[#   6]
          +0.055*[#   7]+0.055*[#   9]+0.044*[#   5]+0.044*[#   8]+0.003*[#  13]
          +0.002*[#  11]+0.002*[#  12]+0.001*[#  15]+0.001*[#  16]
    |psi|^2 = 0.705
==== e(   3) =     9.19242 eV ==== 
     psi = 0.107*[#   2]+0.107*[#   3]+0.107*[#   4]+0.094*[#   1]+0.012*[#   5]
          +0.012*[#   8]+0.007*[#   6]+0.007*[#   7]+0.007*[#   9]+0.007*[#  14]
          +0.003*[#  10]+0.003*[#  15]+0.003*[#  16]+0.002*[#  11]+0.002*[#  12]
          +0.002*[#  13]
    |psi|^2 = 0.481
==== e(   4) =    12.35998 eV ==== 
     psi = 0.186*[#   2]+0.186*[#   3]+0.186*[#   4]+0.048*[#   6]+0.048*[#   7]
          +0.048*[#   9]+0.013*[#  14]+0.009*[#   5]+0.009*[#   8]+0.004*[#  10]
          +0.003*[#  15]+0.003*[#  16]+0.003*[#  11]+0.003*[#  12]+0.003*[#   1]
          +0.002*[#  13]
    |psi|^2 = 0.756
==== e(   5) =    17.11029 eV ==== 
     psi = 0.113*[#   6]+0.113*[#   7]+0.113*[#   9]+0.069*[#   5]+0.069*[#   8]
          +0.043*[#   2]+0.043*[#   3]+0.043*[#   4]+0.014*[#  13]+0.010*[#  11]
          +0.010*[#  12]+0.008*[#  15]+0.008*[#  16]+0.005*[#  10]+0.001*[#   1]
          
    |psi|^2 = 0.664

 k =  -0.1500000000 -0.3000000000  0.5000000000
==== e(   1) =     0.37980 eV ==== 
     psi = 0.198*[#   6]+0.198*[#   7]+0.198*[#   9]+0.127*[#   5]+0.127*[#   8]
          +0.028*[#   2]+0.028*[#   3]+0.028*[#   4]+0.024*[#   1]
    |psi|^2 = 0.958
==== e(   2) =     5.34490 eV ==== 
     psi = 0.328*[#   1]+0.076*[#   2]+0.076*[#   3]+0.076*[#   4]+0.039*[#   6]
          +0.039*[#   7]+0.039*[#   9]+0.033*[#   5]+0.033*[#   8]+0.002*[#  13]
          +0.001*[#  11]+0.001*[#  12]
    |psi|^2 = 0.745
==== e(   3) =     8.89029 eV ==== 
     psi = 0.131*[#   1]+0.102*[#   2]+0.102*[#   3]+0.102*[#   4]+0.021*[#   5]
          +0.021*[#   8]+0.007*[#  14]+0.003*[#  10]+0.003*[#  15]+0.003*[#  16]
          +0.002*[#  11]+0.002*[#  12]+0.002*[#  13]
    |psi|^2 = 0.505
==== e(   4) =    12.11705 eV ==== 
     psi = 0.183*[#   2]+0.183*[#   3]+0.183*[#   4]+0.046*[#   6]+0.046*[#   7]
          +0.046*[#   9]+0.016*[#  14]+0.008*[#   5]+0.008*[#   8]+0.004*[#  10]
          +0.004*[#  15]+0.004*[#  16]+0.003*[#  11]+0.003*[#  12]+0.002*[#  13]
          +0.001*[#   1]
    |psi|^2 = 0.739
==== e(   5) =    17.12130 eV ==== 
     psi = 0.151*[#   6]+0.151*[#   7]+0.151*[#   9]+0.064*[#   5]+0.064*[#   8]
          +0.022*[#   2]+0.022*[#   3]+0.022*[#   4]+0.010*[#  13]+0.008*[#  11]
          +0.008*[#  12]+0.007*[#  15]+0.007*[#  16]+0.006*[#  10]+0.005*[#   1]
          
    |psi|^2 = 0.701

 k =  -0.1500000000  0.6500000000 -0.4500000000
==== e(   1) =     1.02580 eV ==== 
     psi = 0.156*[#   6]+0.156*[#   7]+0.156*[#   9]+0.136*[#   5]+0.136*[#   8]
          +0.054*[#   2]+0.054*[#   3]+0.054*[#   4]
    |psi|^2 = 0.904
==== e(   2) =     4.37089 eV ==== 
     psi = 0.390*[#   1]+0.057*[#   6]+0.057*[#   7]+0.057*[#   9]+0.057*[#   2]
          +0.057*[#   3]+0.057*[#   4]+0.013*[#   5]+0.013*[#   8]+0.001*[#  13]
          
    |psi|^2 = 0.761
==== e(   3) =     8.71219 eV ==== 
     psi = 0.098*[#   2]+0.098*[#   3]+0.098*[#   4]+0.093*[#   1]+0.055*[#   5]
          +0.055*[#   8]+0.010*[#   6]+0.010*[#   7]+0.010*[#   9]+0.007*[#  14]
          +0.004*[#  10]+0.003*[#  15]+0.003*[#  16]+0.002*[#  11]+0.002*[#  12]
          +0.002*[#  13]
    |psi|^2 = 0.549
==== e(   4) =    11.96720 eV ==== 
     psi = 0.181*[#   2]+0.181*[#   3]+0.181*[#   4]+0.041*[#   6]+0.041*[#   7]
          +0.041*[#   9]+0.017*[#  14]+0.007*[#   5]+0.007*[#   8]+0.005*[#  10]
          +0.004*[#  15]+0.004*[#  16]+0.004*[#   1]+0.003*[#  11]+0.003*[#  12]
          +0.002*[#  13]
    |psi|^2 = 0.720
==== e(   5) =    17.10352 eV ==== 
     psi = 0.171*[#   6]+0.171*[#   7]+0.171*[#   9]+0.064*[#   5]+0.064*[#   8]
          +0.037*[#   1]+0.013*[#   2]+0.013*[#   3]+0.013*[#   4]+0.007*[#  13]
          +0.007*[#  11]+0.007*[#  12]+0.007*[#  15]+0.007*[#  16]+0.006*[#  10]
          +0.001*[#  14]
    |psi|^2 = 0.756

 k =  -0.1500000000  0.6000000000 -0.4000000000
==== e(   1) =     1.35022 eV ==== 
     psi = 0.168*[#   5]+0.168*[#   8]+0.118*[#   6]+0.118*[#   7]+0.118*[#   9]
          +0.078*[#   2]+0.078*[#   3]+0.078*[#   4]
    |psi|^2 = 0.927
==== e(   2) =     3.93618 eV ==== 
     psi = 0.192*[#   1]+0.176*[#   6]+0.176*[#   7]+0.176*[#   9]+0.051*[#   5]
          +0.051*[#   8]+0.029*[#   2]+0.029*[#   3]+0.029*[#   4]
    |psi|^2 = 0.910
==== e(   3) =     8.65312 eV ==== 
     psi = 0.097*[#   2]+0.097*[#   3]+0.097*[#   4]+0.069*[#   5]+0.069*[#   8]
          +0.066*[#   1]+0.010*[#   6]+0.010*[#   7]+0.010*[#   9]+0.007*[#  14]
          +0.004*[#  10]+0.003*[#  15]+0.003*[#  16]+0.002*[#  11]+0.002*[#  12]
          +0.001*[#  13]
    |psi|^2 = 0.548
==== e(   4) =    11.91672 eV ==== 
     psi = 0.180*[#   2]+0.180*[#   3]+0.180*[#   4]+0.035*[#   6]+0.035*[#   7]
          +0.035*[#   9]+0.017*[#  14]+0.008*[#   5]+0.008*[#   8]+0.005*[#  10]
          +0.004*[#   1]+0.004*[#  15]+0.004*[#  16]+0.003*[#  11]+0.003*[#  12]
          +0.002*[#  13]
    |psi|^2 = 0.705
==== e(   5) =    17.09327 eV ==== 
     psi = 0.184*[#   6]+0.184*[#   7]+0.184*[#   9]+0.072*[#   1]+0.041*[#   5]
          +0.041*[#   8]+0.010*[#   2]+0.010*[#   3]+0.010*[#   4]+0.006*[#  10]
          +0.006*[#  11]+0.006*[#  12]+0.006*[#  15]+0.006*[#  16]+0.006*[#  13]
          +0.001*[#  14]
    |psi|^2 = 0.775

 k =  -0.2000000000  0.2000000000  0.0500000000
==== e(   1) =    -2.26489 eV ==== 
     psi = 0.636*[#   1]+0.086*[#   6]+0.086*[#   7]+0.086*[#   9]+0.041*[#   5]
          +0.041*[#   8]+0.005*[#   2]+0.005*[#   3]+0.005*[#   4]
    |psi|^2 = 0.993
==== e(   2) =    11.02321 eV ==== 
     psi = 0.118*[#   2]+0.118*[#   3]+0.118*[#   4]+0.068*[#   6]+0.068*[#   7]
          +0.068*[#   9]+0.056*[#   1]+0.037*[#   5]+0.037*[#   8]+0.006*[#  13]
          +0.004*[#  11]+0.004*[#  12]+0.002*[#  15]+0.002*[#  16]
    |psi|^2 = 0.706
==== e(   3) =    13.01564 eV ==== 
     psi = 0.202*[#   2]+0.202*[#   3]+0.202*[#   4]+0.040*[#   6]+0.040*[#   7]
          +0.040*[#   9]+0.008*[#  14]+0.003*[#   5]+0.003*[#   8]
    |psi|^2 = 0.740
==== e(   4) =    13.83013 eV ==== 
     psi = 0.176*[#   2]+0.176*[#   3]+0.176*[#   4]+0.049*[#   6]+0.049*[#   7]
          +0.049*[#   9]+0.031*[#   5]+0.031*[#   8]+0.006*[#  10]+0.005*[#  15]
          +0.005*[#  16]+0.005*[#  11]+0.005*[#  12]+0.004*[#  13]
    |psi|^2 = 0.769
==== e(   5) =    17.13216 eV ==== 
     psi = 0.177*[#   6]+0.177*[#   7]+0.177*[#   9]+0.045*[#   2]+0.045*[#   3]
          +0.045*[#   4]+0.010*[#  13]+0.007*[#  11]+0.007*[#  12]+0.005*[#  15]
          +0.005*[#  16]+0.001*[#   5]+0.001*[#   8]+0.001*[#  10]
    |psi|^2 = 0.705

 k =  -0.2000000000  0.1500000000  0.1000000000
==== e(   1) =    -2.36155 eV ==== 
     psi = 0.703*[#   1]+0.078*[#   6]+0.078*[#   7]+0.078*[#   9]+0.021*[#   5]
          +0.021*[#   8]+0.004*[#   2]+0.004*[#   3]+0.004*[#   4]
    |psi|^2 = 0.994
==== e(   2) =    11.86459 eV ==== 
     psi = 0.122*[#   2]+0.122*[#   3]+0.122*[#   4]+0.100*[#   6]+0.100*[#   7]
          +0.100*[#   9]+0.043*[#   5]+0.043*[#   8]+0.021*[#   1]+0.005*[#  13]
          +0.003*[#  11]+0.003*[#  12]+0.002*[#  15]+0.002*[#  16]+0.001*[#  10]
          
    |psi|^2 = 0.791
==== e(   3) =    12.71945 eV ==== 
     psi = 0.166*[#   2]+0.166*[#   3]+0.166*[#   4]+0.071*[#   6]+0.071*[#   7]
          +0.071*[#   9]+0.016*[#   5]+0.016*[#   8]+0.004*[#  14]+0.003*[#   1]
          +0.002*[#  13]+0.001*[#  11]+0.001*[#  12]+0.001*[#  15]+0.001*[#  16]
          
    |psi|^2 = 0.757
==== e(   4) =    13.51047 eV ==== 
     psi = 0.172*[#   2]+0.172*[#   3]+0.172*[#   4]+0.073*[#   6]+0.073*[#   7]
          +0.073*[#   9]+0.019*[#   5]+0.019*[#   8]+0.003*[#  10]+0.003*[#  11]
          +0.003*[#  12]+0.003*[#  15]+0.003*[#  16]+0.003*[#  13]+0.002*[#  14]
          +0.001*[#   1]
    |psi|^2 = 0.793
==== e(   5) =    17.92278 eV ==== 
     psi = 0.100*[#   2]+0.100*[#   3]+0.100*[#   4]+0.099*[#   6]+0.099*[#   7]
          +0.099*[#   9]+0.016*[#   5]+0.016*[#   8]+0.012*[#  13]+0.010*[#   1]
          +0.008*[#  11]+0.008*[#  12]+0.005*[#  15]+0.005*[#  16]+0.001*[#  10]
          
    |psi|^2 = 0.681

 k =  -0.2000000000 -0.2000000000  0.4500000000
==== e(   1) =    -0.33225 eV ==== 
     psi = 0.193*[#   6]+0.193*[#   7]+0.193*[#   9]+0.128*[#   5]+0.128*[#   8]
          +0.083*[#   1]+0.017*[#   2]+0.017*[#   3]+0.017*[#   4]
    |psi|^2 = 0.971
==== e(   2) =     6.90435 eV ==== 
     psi = 0.107*[#   2]+0.107*[#   3]+0.107*[#   4]+0.070*[#   6]+0.070*[#   7]
          +0.070*[#   9]+0.057*[#   5]+0.057*[#   8]+0.003*[#  13]+0.002*[#  11]
          +0.002*[#  12]+0.001*[#  15]+0.001*[#  16]
    |psi|^2 = 0.655
==== e(   3) =     8.76741 eV ==== 
     psi = 0.224*[#   1]+0.087*[#   2]+0.087*[#   3]+0.087*[#   4]+0.024*[#   5]
          +0.024*[#   8]+0.005*[#  14]+0.003*[#  10]+0.003*[#  15]+0.003*[#  16]
          +0.002*[#  11]+0.002*[#  12]+0.002*[#  13]
    |psi|^2 = 0.555
==== e(   4) =    12.37561 eV ==== 
     psi = 0.187*[#   2]+0.187*[#   3]+0.187*[#   4]+0.046*[#   6]+0.046*[#   7]
          +0.046*[#   9]+0.014*[#  14]+0.004*[#   1]+0.004*[#  10]+0.003*[#  15]
          +0.003*[#  16]+0.002*[#  11]+0.002*[#  12]+0.002*[#   5]+0.002*[#   8]
          +0.002*[#  13]
    |psi|^2 = 0.739
==== e(   5) =    17.23805 eV ==== 
     psi = 0.082*[#   6]+0.082*[#   7]+0.082*[#   9]+0.071*[#   2]+0.071*[#   3]
          +0.071*[#   4]+0.067*[#   5]+0.067*[#   8]+0.017*[#  13]+0.013*[#  11]
          +0.013*[#  12]+0.010*[#  15]+0.010*[#  16]+0.006*[#  10]
    |psi|^2 = 0.662

 k =  -0.2000000000 -0.2500000000  0.5000000000
==== e(   1) =     0.32491 eV ==== 
     psi = 0.205*[#   6]+0.205*[#   7]+0.205*[#   9]+0.119*[#   5]+0.119*[#   8]
          +0.037*[#   1]+0.025*[#   2]+0.025*[#   3]+0.025*[#   4]
    |psi|^2 = 0.964
==== e(   2) =     5.81050 eV ==== 
     psi = 0.096*[#   2]+0.096*[#   3]+0.096*[#   4]+0.094*[#   6]+0.094*[#   7]
          +0.094*[#   9]+0.072*[#   5]+0.072*[#   8]+0.050*[#   1]+0.002*[#  13]
          +0.001*[#  11]+0.001*[#  12]
    |psi|^2 = 0.768
==== e(   3) =     8.22932 eV ==== 
     psi = 0.339*[#   1]+0.072*[#   2]+0.072*[#   3]+0.072*[#   4]+0.034*[#   5]
          +0.034*[#   8]+0.006*[#   6]+0.006*[#   7]+0.006*[#   9]+0.004*[#  14]
          +0.004*[#  10]+0.003*[#  15]+0.003*[#  16]+0.002*[#  11]+0.002*[#  12]
          +0.001*[#  13]
    |psi|^2 = 0.661
==== e(   4) =    12.12972 eV ==== 
     psi = 0.184*[#   2]+0.184*[#   3]+0.184*[#   4]+0.043*[#   6]+0.043*[#   7]
          +0.043*[#   9]+0.017*[#  14]+0.003*[#  10]+0.003*[#  15]+0.003*[#  16]
          +0.002*[#   1]+0.002*[#  11]+0.002*[#  12]+0.001*[#  13]+0.001*[#   5]
          +0.001*[#   8]
    |psi|^2 = 0.719
==== e(   5) =    17.45634 eV ==== 
     psi = 0.103*[#   6]+0.103*[#   7]+0.103*[#   9]+0.064*[#   5]+0.064*[#   8]
          +0.061*[#   2]+0.061*[#   3]+0.061*[#   4]+0.014*[#  13]+0.012*[#  11]
          +0.012*[#  12]+0.011*[#  15]+0.011*[#  16]+0.008*[#  10]
    |psi|^2 = 0.688

 k =  -0.2000000000  0.7000000000 -0.4500000000
==== e(   1) =     1.02486 eV ==== 
     psi = 0.196*[#   6]+0.196*[#   7]+0.196*[#   9]+0.110*[#   5]+0.110*[#   8]
          +0.042*[#   2]+0.042*[#   3]+0.042*[#   4]+0.004*[#   1]
    |psi|^2 = 0.938
==== e(   2) =     4.76106 eV ==== 
     psi = 0.220*[#   1]+0.087*[#   2]+0.087*[#   3]+0.087*[#   4]+0.052*[#   6]
          +0.052*[#   7]+0.052*[#   9]+0.039*[#   5]+0.039*[#   8]+0.002*[#  13]
          
    |psi|^2 = 0.719
==== e(   3) =     7.91944 eV ==== 
     psi = 0.362*[#   1]+0.063*[#   2]+0.063*[#   3]+0.063*[#   4]+0.056*[#   5]
          +0.056*[#   8]+0.021*[#   6]+0.021*[#   7]+0.021*[#   9]+0.004*[#  10]
          +0.004*[#  14]+0.003*[#  15]+0.003*[#  16]+0.002*[#  11]+0.002*[#  12]
          +0.001*[#  13]
    |psi|^2 = 0.745
==== e(   4) =    11.95899 eV ==== 
     psi = 0.181*[#   2]+0.181*[#   3]+0.181*[#   4]+0.044*[#   6]+0.044*[#   7]
          +0.044*[#   9]+0.019*[#  14]+0.003*[#  10]+0.002*[#  15]+0.002*[#  16]
          +0.002*[#   1]+0.002*[#  11]+0.002*[#  12]+0.002*[#   5]+0.002*[#   8]
          +0.001*[#  13]
    |psi|^2 = 0.711
==== e(   5) =    17.60908 eV ==== 
     psi = 0.117*[#   6]+0.117*[#   7]+0.117*[#   9]+0.067*[#   5]+0.067*[#   8]
          +0.040*[#   2]+0.040*[#   3]+0.040*[#   4]+0.011*[#  13]+0.010*[#  11]
          +0.010*[#  12]+0.010*[#  15]+0.010*[#  16]+0.010*[#  10]+0.003*[#   1]
          
    |psi|^2 = 0.668

 k =  -0.2000000000  0.6500000000 -0.4000000000
==== e(   1) =     1.61215 eV ==== 
     psi = 0.147*[#   5]+0.147*[#   8]+0.133*[#   6]+0.133*[#   7]+0.133*[#   9]
          +0.072*[#   2]+0.072*[#   3]+0.072*[#   4]+0.001*[#   1]
    |psi|^2 = 0.911
==== e(   2) =     3.98612 eV ==== 
     psi = 0.229*[#   1]+0.113*[#   6]+0.113*[#   7]+0.113*[#   9]+0.065*[#   2]
          +0.065*[#   3]+0.065*[#   4]+0.003*[#   5]+0.003*[#   8]
    |psi|^2 = 0.771
==== e(   3) =     7.77512 eV ==== 
     psi = 0.204*[#   1]+0.105*[#   5]+0.105*[#   8]+0.057*[#   2]+0.057*[#   3]
          +0.057*[#   4]+0.047*[#   6]+0.047*[#   7]+0.047*[#   9]+0.004*[#  10]
          +0.004*[#  14]+0.003*[#  15]+0.003*[#  16]+0.002*[#  11]+0.002*[#  12]
          +0.001*[#  13]
    |psi|^2 = 0.746
==== e(   4) =    11.87142 eV ==== 
     psi = 0.178*[#   2]+0.178*[#   3]+0.178*[#   4]+0.038*[#   6]+0.038*[#   7]
          +0.038*[#   9]+0.020*[#  14]+0.019*[#   1]+0.003*[#  10]+0.002*[#  15]
          +0.002*[#  16]+0.002*[#   5]+0.002*[#   8]+0.002*[#  11]+0.002*[#  12]
          +0.001*[#  13]
    |psi|^2 = 0.705
==== e(   5) =    17.67389 eV ==== 
     psi = 0.133*[#   6]+0.133*[#   7]+0.133*[#   9]+0.069*[#   5]+0.069*[#   8]
          +0.047*[#   1]+0.029*[#   2]+0.029*[#   3]+0.029*[#   4]+0.010*[#  10]
          +0.009*[#  15]+0.009*[#  16]+0.009*[#  11]+0.009*[#  12]+0.008*[#  13]
          
    |psi|^2 = 0.727

 k =  -0.2500000000  0.2500000000  0.0500000000
==== e(   1) =    -1.83078 eV ==== 
     psi = 0.391*[#   1]+0.143*[#   6]+0.143*[#   7]+0.143*[#   9]+0.074*[#   5]
          +0.074*[#   8]+0.007*[#   2]+0.007*[#   3]+0.007*[#   4]
    |psi|^2 = 0.989
==== e(   2) =     9.41172 eV ==== 
     psi = 0.109*[#   2]+0.109*[#   3]+0.109*[#   4]+0.015*[#   5]+0.015*[#   8]
          +0.007*[#  13]+0.005*[#   6]+0.005*[#   7]+0.005*[#   9]+0.004*[#  11]
          +0.004*[#  12]+0.003*[#  15]+0.003*[#  16]
    |psi|^2 = 0.392
==== e(   3) =    12.42277 eV ==== 
     psi = 0.202*[#   2]+0.202*[#   3]+0.202*[#   4]+0.039*[#   6]+0.039*[#   7]
          +0.039*[#   9]+0.013*[#  14]+0.002*[#   5]+0.002*[#   8]+0.002*[#   1]
          
    |psi|^2 = 0.741
==== e(   4) =    13.31858 eV ==== 
     psi = 0.159*[#   2]+0.159*[#   3]+0.159*[#   4]+0.058*[#   6]+0.058*[#   7]
          +0.058*[#   9]+0.039*[#   5]+0.039*[#   8]+0.007*[#  10]+0.007*[#  15]
          +0.007*[#  16]+0.006*[#  11]+0.006*[#  12]+0.006*[#  13]
    |psi|^2 = 0.769
==== e(   5) =    16.54285 eV ==== 
     psi = 0.202*[#   6]+0.202*[#   7]+0.202*[#   9]+0.043*[#   2]+0.043*[#   3]
          +0.043*[#   4]+0.008*[#  13]+0.005*[#  11]+0.005*[#  12]+0.004*[#  15]
          +0.004*[#  16]+0.002*[#  10]
    |psi|^2 = 0.763

 k =  -0.2500000000  0.2000000000  0.1000000000
==== e(   1) =    -1.97449 eV ==== 
     psi = 0.491*[#   1]+0.130*[#   6]+0.130*[#   7]+0.130*[#   9]+0.047*[#   5]
          +0.047*[#   8]+0.007*[#   2]+0.007*[#   3]+0.007*[#   4]
    |psi|^2 = 0.993
==== e(   2) =    10.24028 eV ==== 
     psi = 0.112*[#   2]+0.112*[#   3]+0.112*[#   4]+0.047*[#   6]+0.047*[#   7]
          +0.047*[#   9]+0.033*[#   5]+0.033*[#   8]+0.025*[#   1]+0.006*[#  13]
          +0.004*[#  11]+0.004*[#  12]+0.003*[#  15]+0.003*[#  16]
    |psi|^2 = 0.590
==== e(   3) =    12.11388 eV ==== 
     psi = 0.160*[#   2]+0.160*[#   3]+0.160*[#   4]+0.071*[#   6]+0.071*[#   7]
          +0.071*[#   9]+0.018*[#   5]+0.018*[#   8]+0.008*[#  14]+0.002*[#  13]
          +0.002*[#  11]+0.002*[#  12]+0.001*[#  15]+0.001*[#  16]+0.001*[#  10]
          
    |psi|^2 = 0.747
==== e(   4) =    12.92885 eV ==== 
     psi = 0.161*[#   2]+0.161*[#   3]+0.161*[#   4]+0.079*[#   6]+0.079*[#   7]
          +0.079*[#   9]+0.021*[#   5]+0.021*[#   8]+0.004*[#  10]+0.004*[#  11]
          +0.004*[#  12]+0.004*[#  13]+0.004*[#  14]+0.004*[#  15]+0.004*[#  16]
          +0.003*[#   1]
    |psi|^2 = 0.791
==== e(   5) =    17.61253 eV ==== 
     psi = 0.114*[#   6]+0.114*[#   7]+0.114*[#   9]+0.090*[#   2]+0.090*[#   3]
          +0.090*[#   4]+0.012*[#   1]+0.009*[#   5]+0.009*[#   8]+0.009*[#  13]
          +0.006*[#  11]+0.006*[#  12]+0.005*[#  15]+0.005*[#  16]+0.002*[#  10]
          
    |psi|^2 = 0.675

 k =  -0.2500000000  0.1500000000  0.1500000000
==== e(   1) =    -2.02234 eV ==== 
     psi = 0.527*[#   1]+0.125*[#   6]+0.125*[#   7]+0.125*[#   9]+0.036*[#   5]
          +0.036*[#   8]+0.006*[#   2]+0.006*[#   3]+0.006*[#   4]
    |psi|^2 = 0.994
==== e(   2) =    10.87227 eV ==== 
     psi = 0.105*[#   2]+0.105*[#   3]+0.105*[#   4]+0.103*[#   6]+0.103*[#   7]
          +0.103*[#   9]+0.058*[#   5]+0.058*[#   8]+0.006*[#  13]+0.004*[#  11]
          +0.004*[#  12]+0.003*[#  15]+0.003*[#  16]+0.001*[#  10]
    |psi|^2 = 0.761
==== e(   3) =    11.52975 eV ==== 
     psi = 0.144*[#   2]+0.144*[#   3]+0.144*[#   4]+0.071*[#   6]+0.071*[#   7]
          +0.071*[#   9]+0.026*[#   1]+0.010*[#   5]+0.010*[#   8]+0.006*[#  14]
          +0.002*[#  13]+0.002*[#  11]+0.002*[#  12]+0.002*[#  15]+0.002*[#  16]
          +0.001*[#  10]
    |psi|^2 = 0.707
==== e(   4) =    12.89277 eV ==== 
     psi = 0.170*[#   2]+0.170*[#   3]+0.170*[#   4]+0.075*[#   6]+0.075*[#   7]
          +0.075*[#   9]+0.012*[#   5]+0.012*[#   8]+0.006*[#  14]+0.003*[#   1]
          +0.002*[#  10]+0.002*[#  11]+0.002*[#  12]+0.002*[#  13]+0.002*[#  15]
          +0.002*[#  16]
    |psi|^2 = 0.782
==== e(   5) =    18.05690 eV ==== 
     psi = 0.133*[#   2]+0.133*[#   3]+0.133*[#   4]+0.094*[#   5]+0.094*[#   8]
          +0.019*[#  13]+0.012*[#  11]+0.012*[#  12]+0.010*[#   6]+0.010*[#   7]
          +0.010*[#   9]+0.007*[#  15]+0.007*[#  16]
    |psi|^2 = 0.675

 k =  -0.2500000000  0.7500000000 -0.4500000000
==== e(   1) =     1.02120 eV ==== 
     psi = 0.205*[#   6]+0.205*[#   7]+0.205*[#   9]+0.106*[#   5]+0.106*[#   8]
          +0.038*[#   2]+0.038*[#   3]+0.038*[#   4]+0.011*[#   1]
    |psi|^2 = 0.952
==== e(   2) =     4.96401 eV ==== 
     psi = 0.102*[#   6]+0.102*[#   7]+0.102*[#   9]+0.100*[#   2]+0.100*[#   3]
          +0.100*[#   4]+0.075*[#   5]+0.075*[#   8]+0.002*[#  13]+0.001*[#  11]
          +0.001*[#  12]
    |psi|^2 = 0.761
==== e(   3) =     7.58191 eV ==== 
     psi = 0.530*[#   1]+0.045*[#   2]+0.045*[#   3]+0.045*[#   4]+0.035*[#   5]
          +0.035*[#   8]+0.011*[#   6]+0.011*[#   7]+0.011*[#   9]+0.004*[#  10]
          +0.003*[#  14]+0.003*[#  15]+0.003*[#  16]+0.002*[#  11]+0.002*[#  12]
          
    |psi|^2 = 0.787
==== e(   4) =    11.95949 eV ==== 
     psi = 0.180*[#   2]+0.180*[#   3]+0.180*[#   4]+0.042*[#   6]+0.042*[#   7]
          +0.042*[#   9]+0.020*[#  14]+0.003*[#  10]+0.002*[#  15]+0.002*[#  16]
          +0.002*[#   1]+0.001*[#  11]+0.001*[#  12]
    |psi|^2 = 0.701
==== e(   5) =    17.86601 eV ==== 
     psi = 0.086*[#   6]+0.086*[#   7]+0.086*[#   9]+0.067*[#   2]+0.067*[#   3]
          +0.067*[#   4]+0.060*[#   5]+0.060*[#   8]+0.014*[#  13]+0.013*[#  11]
          +0.013*[#  12]+0.013*[#  15]+0.013*[#  16]+0.012*[#  10]
    |psi|^2 = 0.660

 k =  -0.2500000000  0.7000000000 -0.4000000000
==== e(   1) =     1.74238 eV ==== 
     psi = 0.176*[#   6]+0.176*[#   7]+0.176*[#   9]+0.098*[#   5]+0.098*[#   8]
          +0.062*[#   2]+0.062*[#   3]+0.062*[#   4]
    |psi|^2 = 0.909
==== e(   2) =     4.10513 eV ==== 
     psi = 0.102*[#   2]+0.102*[#   3]+0.102*[#   4]+0.086*[#   1]+0.049*[#   6]
          +0.049*[#   7]+0.049*[#   9]+0.036*[#   5]+0.036*[#   8]+0.001*[#  13]
          
    |psi|^2 = 0.615
==== e(   3) =     7.23390 eV ==== 
     psi = 0.594*[#   1]+0.041*[#   5]+0.041*[#   8]+0.028*[#   2]+0.028*[#   3]
          +0.028*[#   4]+0.026*[#   6]+0.026*[#   7]+0.026*[#   9]+0.004*[#  10]
          +0.003*[#  14]+0.003*[#  15]+0.003*[#  16]+0.002*[#  11]+0.002*[#  12]
          
    |psi|^2 = 0.855
==== e(   4) =    11.85401 eV ==== 
     psi = 0.175*[#   2]+0.175*[#   3]+0.175*[#   4]+0.049*[#   6]+0.049*[#   7]
          +0.049*[#   9]+0.021*[#  14]+0.005*[#   1]+0.003*[#   5]+0.003*[#   8]
          +0.002*[#  10]+0.002*[#  15]+0.002*[#  16]+0.001*[#  11]+0.001*[#  12]
          
    |psi|^2 = 0.714
==== e(   5) =    18.20306 eV ==== 
     psi = 0.074*[#   6]+0.074*[#   7]+0.074*[#   9]+0.059*[#   5]+0.059*[#   8]
          +0.055*[#   2]+0.055*[#   3]+0.055*[#   4]+0.014*[#  10]+0.013*[#  15]
          +0.013*[#  16]+0.012*[#  11]+0.012*[#  12]+0.011*[#  13]+0.001*[#   1]
          
    |psi|^2 = 0.586

 k =  -0.2500000000  0.6500000000 -0.3500000000
==== e(   1) =     2.17779 eV ==== 
     psi = 0.124*[#   5]+0.124*[#   8]+0.104*[#   6]+0.104*[#   7]+0.104*[#   9]
          +0.088*[#   2]+0.088*[#   3]+0.088*[#   4]
    |psi|^2 = 0.825
==== e(   2) =     3.61472 eV ==== 
     psi = 0.100*[#   1]+0.097*[#   6]+0.097*[#   7]+0.097*[#   9]+0.088*[#   2]
          +0.088*[#   3]+0.088*[#   4]
    |psi|^2 = 0.659
==== e(   3) =     7.12600 eV ==== 
     psi = 0.443*[#   1]+0.071*[#   5]+0.071*[#   8]+0.062*[#   6]+0.062*[#   7]
          +0.062*[#   9]+0.021*[#   2]+0.021*[#   3]+0.021*[#   4]+0.004*[#  10]
          +0.004*[#  14]+0.002*[#  15]+0.002*[#  16]+0.002*[#  11]+0.002*[#  12]
          
    |psi|^2 = 0.852
==== e(   4) =    11.81841 eV ==== 
     psi = 0.173*[#   2]+0.173*[#   3]+0.173*[#   4]+0.048*[#   6]+0.048*[#   7]
          +0.048*[#   9]+0.032*[#   1]+0.021*[#  14]+0.002*[#  10]+0.001*[#  15]
          +0.001*[#  16]+0.001*[#  11]+0.001*[#  12]
    |psi|^2 = 0.724
==== e(   5) =    18.32097 eV ==== 
     psi = 0.090*[#   6]+0.090*[#   7]+0.090*[#   9]+0.062*[#   5]+0.062*[#   8]
          +0.049*[#   2]+0.049*[#   3]+0.049*[#   4]+0.030*[#   1]+0.014*[#  10]
          +0.012*[#  15]+0.012*[#  16]+0.011*[#  11]+0.011*[#  12]+0.009*[#  13]
          
    |psi|^2 = 0.641

 k =  -0.3000000000  0.3000000000  0.0500000000
==== e(   1) =    -1.30576 eV ==== 
     psi = 0.190*[#   6]+0.190*[#   7]+0.190*[#   9]+0.183*[#   1]+0.103*[#   5]
          +0.103*[#   8]+0.009*[#   2]+0.009*[#   3]+0.009*[#   4]
    |psi|^2 = 0.986
==== e(   2) =     7.88390 eV ==== 
     psi = 0.290*[#   1]+0.085*[#   2]+0.085*[#   3]+0.085*[#   4]+0.008*[#   6]
          +0.008*[#   7]+0.008*[#   9]+0.005*[#  13]+0.003*[#  11]+0.003*[#  12]
          +0.002*[#  15]+0.002*[#  16]
    |psi|^2 = 0.583
==== e(   3) =    11.92285 eV ==== 
     psi = 0.203*[#   2]+0.203*[#   3]+0.203*[#   4]+0.042*[#   6]+0.042*[#   7]
          +0.042*[#   9]+0.019*[#  14]+0.002*[#   1]+0.001*[#   5]+0.001*[#   8]
          
    |psi|^2 = 0.759
==== e(   4) =    12.86406 eV ==== 
     psi = 0.150*[#   2]+0.150*[#   3]+0.150*[#   4]+0.063*[#   6]+0.063*[#   7]
          +0.063*[#   9]+0.043*[#   5]+0.043*[#   8]+0.008*[#  10]+0.007*[#  15]
          +0.007*[#  16]+0.007*[#  11]+0.007*[#  12]+0.007*[#  13]
    |psi|^2 = 0.768
==== e(   5) =    16.03586 eV ==== 
     psi = 0.221*[#   6]+0.221*[#   7]+0.221*[#   9]+0.041*[#   2]+0.041*[#   3]
          +0.041*[#   4]+0.006*[#  13]+0.005*[#  11]+0.005*[#  12]+0.004*[#  15]
          +0.004*[#  16]+0.002*[#   5]+0.002*[#   8]+0.002*[#  10]
    |psi|^2 = 0.816

 k =  -0.3000000000  0.2500000000  0.1000000000
==== e(   1) =    -1.49334 eV ==== 
     psi = 0.267*[#   1]+0.180*[#   6]+0.180*[#   7]+0.180*[#   9]+0.078*[#   5]
          +0.078*[#   8]+0.009*[#   2]+0.009*[#   3]+0.009*[#   4]
    |psi|^2 = 0.987
==== e(   2) =     8.66603 eV ==== 
     psi = 0.100*[#   2]+0.100*[#   3]+0.100*[#   4]+0.078*[#   1]+0.006*[#  13]
          +0.004*[#  11]+0.004*[#  12]+0.003*[#   5]+0.003*[#   8]+0.002*[#  15]
          +0.002*[#  16]
    |psi|^2 = 0.406
==== e(   3) =    11.58797 eV ==== 
     psi = 0.156*[#   2]+0.156*[#   3]+0.156*[#   4]+0.073*[#   6]+0.073*[#   7]
          +0.073*[#   9]+0.019*[#   5]+0.019*[#   8]+0.011*[#  14]+0.003*[#   1]
          +0.002*[#  13]+0.002*[#  11]+0.002*[#  12]+0.002*[#  15]+0.002*[#  16]
          +0.001*[#  10]
    |psi|^2 = 0.749
==== e(   4) =    12.41218 eV ==== 
     psi = 0.155*[#   2]+0.155*[#   3]+0.155*[#   4]+0.082*[#   6]+0.082*[#   7]
          +0.082*[#   9]+0.022*[#   5]+0.022*[#   8]+0.006*[#  14]+0.004*[#  10]
          +0.004*[#  11]+0.004*[#  12]+0.004*[#  13]+0.004*[#  15]+0.004*[#  16]
          +0.003*[#   1]
    |psi|^2 = 0.790
==== e(   5) =    17.24420 eV ==== 
     psi = 0.137*[#   6]+0.137*[#   7]+0.137*[#   9]+0.078*[#   2]+0.078*[#   3]
          +0.078*[#   4]+0.007*[#  13]+0.006*[#   1]+0.006*[#   5]+0.006*[#   8]
          +0.006*[#  11]+0.006*[#  12]+0.005*[#  15]+0.005*[#  16]+0.003*[#  10]
          
    |psi|^2 = 0.692

 k =  -0.3000000000  0.2000000000  0.1500000000
==== e(   1) =    -1.58706 eV ==== 
     psi = 0.344*[#   1]+0.169*[#   6]+0.169*[#   7]+0.169*[#   9]+0.057*[#   5]
          +0.057*[#   8]+0.009*[#   2]+0.009*[#   3]+0.009*[#   4]
    |psi|^2 = 0.990
==== e(   2) =     9.42604 eV ==== 
     psi = 0.109*[#   2]+0.109*[#   3]+0.109*[#   4]+0.024*[#   6]+0.024*[#   7]
          +0.024*[#   9]+0.018*[#   5]+0.018*[#   8]+0.007*[#  13]+0.004*[#  11]
          +0.004*[#  12]+0.003*[#  15]+0.003*[#  16]
    |psi|^2 = 0.458
==== e(   3) =    10.80942 eV ==== 
     psi = 0.128*[#   2]+0.128*[#   3]+0.128*[#   4]+0.070*[#   6]+0.070*[#   7]
          +0.070*[#   9]+0.019*[#   5]+0.019*[#   8]+0.006*[#  14]+0.003*[#  13]
          +0.003*[#   1]+0.003*[#  11]+0.003*[#  12]+0.002*[#  15]+0.002*[#  16]
          +0.002*[#  10]
    |psi|^2 = 0.659
==== e(   4) =    12.37232 eV ==== 
     psi = 0.167*[#   2]+0.167*[#   3]+0.167*[#   4]+0.077*[#   6]+0.077*[#   7]
          +0.077*[#   9]+0.010*[#   1]+0.010*[#   5]+0.010*[#   8]+0.009*[#  14]
          +0.002*[#  10]+0.002*[#  11]+0.002*[#  12]+0.002*[#  13]+0.002*[#  15]
          +0.002*[#  16]
    |psi|^2 = 0.783
==== e(   5) =    18.06562 eV ==== 
     psi = 0.096*[#   2]+0.096*[#   3]+0.096*[#   4]+0.046*[#   6]+0.046*[#   7]
          +0.046*[#   9]+0.045*[#   5]+0.045*[#   8]+0.014*[#  13]+0.011*[#   1]
          +0.009*[#  11]+0.009*[#  12]+0.007*[#  15]+0.007*[#  16]+0.002*[#  10]
          
    |psi|^2 = 0.574

 k =  -0.3000000000  0.7000000000 -0.3500000000
==== e(   1) =     2.48986 eV ==== 
     psi = 0.109*[#   6]+0.109*[#   7]+0.109*[#   9]+0.091*[#   2]+0.091*[#   3]
          +0.091*[#   4]+0.066*[#   5]+0.066*[#   8]
    |psi|^2 = 0.733
==== e(   2) =     3.38408 eV ==== 
     psi = 0.114*[#   2]+0.114*[#   3]+0.114*[#   4]+0.005*[#   5]+0.005*[#   8]
          +0.004*[#   6]+0.004*[#   7]+0.004*[#   9]+0.001*[#  13]
    |psi|^2 = 0.369
==== e(   3) =     6.89088 eV ==== 
     psi = 0.806*[#   1]+0.018*[#   6]+0.018*[#   7]+0.018*[#   9]+0.011*[#   5]
          +0.011*[#   8]+0.006*[#   2]+0.006*[#   3]+0.006*[#   4]+0.004*[#  14]
          +0.003*[#  10]+0.002*[#  15]+0.002*[#  16]+0.001*[#  11]+0.001*[#  12]
          
    |psi|^2 = 0.915
==== e(   4) =    11.80058 eV ==== 
     psi = 0.169*[#   2]+0.169*[#   3]+0.169*[#   4]+0.065*[#   6]+0.065*[#   7]
          +0.065*[#   9]+0.021*[#  14]+0.016*[#   1]+0.002*[#   5]+0.002*[#   8]
          +0.002*[#  10]
    |psi|^2 = 0.750
==== e(   5) =    18.86098 eV ==== 
     psi = 0.060*[#   2]+0.060*[#   3]+0.060*[#   4]+0.056*[#   5]+0.056*[#   8]
          +0.019*[#  10]+0.018*[#   6]+0.018*[#   7]+0.018*[#   9]+0.016*[#  15]
          +0.016*[#  16]+0.014*[#  11]+0.014*[#  12]+0.011*[#  13]
    |psi|^2 = 0.437

 k =  -0.3500000000  0.3500000000  0.0500000000
==== e(   1) =    -0.70150 eV ==== 
     psi = 0.210*[#   6]+0.210*[#   7]+0.210*[#   9]+0.118*[#   5]+0.118*[#   8]
          +0.078*[#   1]+0.013*[#   2]+0.013*[#   3]+0.013*[#   4]
    |psi|^2 = 0.983
==== e(   2) =     6.48261 eV ==== 
     psi = 0.514*[#   1]+0.067*[#   2]+0.067*[#   3]+0.067*[#   4]+0.009*[#   6]
          +0.009*[#   7]+0.009*[#   9]+0.003*[#  13]+0.002*[#  11]+0.002*[#  12]
          +0.001*[#  15]+0.001*[#  16]
    |psi|^2 = 0.751
==== e(   3) =    11.52578 eV ==== 
     psi = 0.207*[#   2]+0.207*[#   3]+0.207*[#   4]+0.041*[#   6]+0.041*[#   7]
          +0.041*[#   9]+0.025*[#  14]+0.003*[#   1]
    |psi|^2 = 0.773
==== e(   4) =    12.49304 eV ==== 
     psi = 0.146*[#   2]+0.146*[#   3]+0.146*[#   4]+0.064*[#   6]+0.064*[#   7]
          +0.064*[#   9]+0.030*[#   5]+0.030*[#   8]+0.009*[#  10]+0.008*[#  15]
          +0.008*[#  16]+0.008*[#  11]+0.008*[#  12]+0.007*[#  13]
    |psi|^2 = 0.739
==== e(   5) =    15.62972 eV ==== 
     psi = 0.234*[#   6]+0.234*[#   7]+0.234*[#   9]+0.040*[#   2]+0.040*[#   3]
          +0.040*[#   4]+0.006*[#   5]+0.006*[#   8]+0.005*[#  13]+0.004*[#  11]
          +0.004*[#  12]+0.003*[#  15]+0.003*[#  16]+0.002*[#  10]
    |psi|^2 = 0.854

 k =  -0.3500000000  0.3000000000  0.1000000000
==== e(   1) =    -0.92480 eV ==== 
     psi = 0.208*[#   6]+0.208*[#   7]+0.208*[#   9]+0.125*[#   1]+0.102*[#   5]
          +0.102*[#   8]+0.011*[#   2]+0.011*[#   3]+0.011*[#   4]
    |psi|^2 = 0.986
==== e(   2) =     7.19681 eV ==== 
     psi = 0.359*[#   1]+0.080*[#   2]+0.080*[#   3]+0.080*[#   4]+0.019*[#   6]
          +0.019*[#   7]+0.019*[#   9]+0.004*[#  13]+0.003*[#   5]+0.003*[#   8]
          +0.002*[#  11]+0.002*[#  12]+0.002*[#  15]+0.002*[#  16]
    |psi|^2 = 0.671
==== e(   3) =    11.15534 eV ==== 
     psi = 0.155*[#   2]+0.155*[#   3]+0.155*[#   4]+0.070*[#   6]+0.070*[#   7]
          +0.070*[#   9]+0.014*[#  14]+0.013*[#   5]+0.013*[#   8]+0.008*[#   1]
          +0.002*[#  11]+0.002*[#  12]+0.002*[#  13]+0.002*[#  10]+0.002*[#  15]
          +0.002*[#  16]
    |psi|^2 = 0.735
==== e(   4) =    11.98219 eV ==== 
     psi = 0.154*[#   2]+0.154*[#   3]+0.154*[#   4]+0.081*[#   6]+0.081*[#   7]
          +0.081*[#   9]+0.018*[#   5]+0.018*[#   8]+0.008*[#  14]+0.005*[#  10]
          +0.004*[#  15]+0.004*[#  16]+0.004*[#  11]+0.004*[#  12]+0.004*[#  13]
          +0.002*[#   1]
    |psi|^2 = 0.779
==== e(   5) =    16.88890 eV ==== 
     psi = 0.160*[#   6]+0.160*[#   7]+0.160*[#   9]+0.069*[#   2]+0.069*[#   3]
          +0.069*[#   4]+0.008*[#   5]+0.008*[#   8]+0.006*[#  13]+0.005*[#  11]
          +0.005*[#  12]+0.005*[#  15]+0.005*[#  16]+0.004*[#  10]+0.002*[#   1]
          
    |psi|^2 = 0.735

 k =  -0.3500000000  0.2500000000  0.1500000000
==== e(   1) =    -1.05907 eV ==== 
     psi = 0.204*[#   6]+0.204*[#   7]+0.204*[#   9]+0.178*[#   1]+0.081*[#   5]
          +0.081*[#   8]+0.011*[#   2]+0.011*[#   3]+0.011*[#   4]
    |psi|^2 = 0.985
==== e(   2) =     7.94065 eV ==== 
     psi = 0.146*[#   1]+0.099*[#   2]+0.099*[#   3]+0.099*[#   4]+0.012*[#   6]
          +0.012*[#   7]+0.012*[#   9]+0.005*[#   5]+0.005*[#   8]+0.005*[#  13]
          +0.003*[#  11]+0.003*[#  12]+0.002*[#  15]+0.002*[#  16]
    |psi|^2 = 0.504
==== e(   3) =    10.28921 eV ==== 
     psi = 0.119*[#   2]+0.119*[#   3]+0.119*[#   4]+0.067*[#   6]+0.067*[#   7]
          +0.067*[#   9]+0.019*[#   5]+0.019*[#   8]+0.010*[#   1]+0.007*[#  14]
          +0.003*[#  13]+0.003*[#  11]+0.003*[#  12]+0.003*[#  15]+0.003*[#  16]
          +0.002*[#  10]
    |psi|^2 = 0.632
==== e(   4) =    11.93308 eV ==== 
     psi = 0.166*[#   2]+0.166*[#   3]+0.166*[#   4]+0.076*[#   6]+0.076*[#   7]
          +0.076*[#   9]+0.012*[#   1]+0.012*[#  14]+0.008*[#   5]+0.008*[#   8]
          +0.002*[#  10]+0.002*[#  11]+0.002*[#  12]+0.002*[#  15]+0.002*[#  16]
          +0.002*[#  13]
    |psi|^2 = 0.780
==== e(   5) =    17.92613 eV ==== 
     psi = 0.088*[#   6]+0.088*[#   7]+0.088*[#   9]+0.074*[#   2]+0.074*[#   3]
          +0.074*[#   4]+0.022*[#   5]+0.022*[#   8]+0.009*[#  13]+0.007*[#  11]
          +0.007*[#  12]+0.006*[#  15]+0.006*[#  16]+0.004*[#  10]+0.002*[#   1]
          
    |psi|^2 = 0.569

 k =  -0.3500000000  0.2000000000  0.2000000000
==== e(   1) =    -1.10386 eV ==== 
     psi = 0.209*[#   1]+0.201*[#   6]+0.201*[#   7]+0.201*[#   9]+0.067*[#   5]
          +0.067*[#   8]+0.011*[#   2]+0.011*[#   3]+0.011*[#   4]
    |psi|^2 = 0.981
==== e(   2) =     8.40470 eV ==== 
     psi = 0.114*[#   2]+0.114*[#   3]+0.114*[#   4]+0.006*[#  13]+0.004*[#  11]
          +0.004*[#  12]+0.002*[#  15]+0.002*[#  16]+0.001*[#   5]+0.001*[#   8]
          
    |psi|^2 = 0.367
==== e(   3) =     9.75844 eV ==== 
     psi = 0.109*[#   2]+0.109*[#   3]+0.109*[#   4]+0.020*[#   1]+0.016*[#   6]
          +0.016*[#   7]+0.016*[#   9]+0.010*[#   5]+0.010*[#   8]+0.006*[#  14]
          +0.003*[#  13]+0.003*[#  11]+0.003*[#  12]+0.003*[#  15]+0.003*[#  16]
          +0.003*[#  10]
    |psi|^2 = 0.440
==== e(   4) =    11.93547 eV ==== 
     psi = 0.165*[#   2]+0.165*[#   3]+0.165*[#   4]+0.079*[#   6]+0.079*[#   7]
          +0.079*[#   9]+0.026*[#   1]+0.013*[#  14]+0.005*[#   5]+0.005*[#   8]
          +0.002*[#  10]+0.002*[#  11]+0.002*[#  12]+0.002*[#  15]+0.002*[#  16]
          +0.002*[#  13]
    |psi|^2 = 0.792
==== e(   5) =    18.34970 eV ==== 
     psi = 0.105*[#   2]+0.105*[#   3]+0.105*[#   4]+0.029*[#   5]+0.029*[#   8]
          +0.018*[#  13]+0.013*[#   6]+0.013*[#   7]+0.013*[#   9]+0.012*[#  11]
          +0.012*[#  12]+0.008*[#  15]+0.008*[#  16]+0.003*[#  10]
    |psi|^2 = 0.472

 k =  -0.4000000000  0.4000000000  0.0500000000
==== e(   1) =    -0.04946 eV ==== 
     psi = 0.210*[#   6]+0.210*[#   7]+0.210*[#   9]+0.119*[#   5]+0.119*[#   8]
          +0.025*[#   2]+0.025*[#   3]+0.025*[#   4]+0.016*[#   1]
    |psi|^2 = 0.959
==== e(   2) =     5.25377 eV ==== 
     psi = 0.567*[#   1]+0.055*[#   2]+0.055*[#   3]+0.055*[#   4]+0.005*[#   5]
          +0.005*[#   8]+0.003*[#   6]+0.003*[#   7]+0.003*[#   9]+0.002*[#  13]
          +0.001*[#  11]+0.001*[#  12]
    |psi|^2 = 0.756
==== e(   3) =    11.23845 eV ==== 
     psi = 0.212*[#   2]+0.212*[#   3]+0.212*[#   4]+0.030*[#  14]+0.023*[#   6]
          +0.023*[#   7]+0.023*[#   9]+0.009*[#   1]
    |psi|^2 = 0.748
==== e(   4) =    12.22055 eV ==== 
     psi = 0.144*[#   2]+0.144*[#   3]+0.144*[#   4]+0.064*[#   6]+0.064*[#   7]
          +0.064*[#   9]+0.010*[#  10]+0.010*[#   5]+0.010*[#   8]+0.009*[#  15]
          +0.009*[#  16]+0.009*[#  11]+0.009*[#  12]+0.008*[#  13]
    |psi|^2 = 0.696
==== e(   5) =    15.33467 eV ==== 
     psi = 0.238*[#   6]+0.238*[#   7]+0.238*[#   9]+0.040*[#   2]+0.040*[#   3]
          +0.040*[#   4]+0.004*[#   5]+0.004*[#   8]+0.004*[#  13]+0.003*[#  11]
          +0.003*[#  12]+0.003*[#  15]+0.003*[#  16]+0.003*[#  10]
    |psi|^2 = 0.860

[...]
          
    |psi|^2 = 0.180
==== e(   5) =    12.86760 eV ==== 
     psi = 0.330*[#   1]+0.036*[#   5]+0.036*[#   8]+0.022*[#   6]+0.022*[#   7]
          +0.022*[#   9]+0.017*[#   2]+0.017*[#   3]+0.017*[#   4]+0.013*[#  10]
          +0.008*[#  15]+0.008*[#  16]+0.005*[#  11]+0.005*[#  12]
    |psi|^2 = 0.558

 k =   0.0000000000 -0.1500000000  0.8000000000
==== e(   1) =     3.31324 eV ==== 
     psi = 0.112*[#   2]+0.112*[#   3]+0.112*[#   4]+0.106*[#   1]+0.034*[#   5]
          +0.034*[#   8]+0.020*[#   6]+0.020*[#   7]+0.020*[#   9]+0.002*[#  10]
          +0.001*[#  15]+0.001*[#  16]
    |psi|^2 = 0.577
==== e(   2) =     5.14034 eV ==== 
     psi = 0.346*[#   1]+0.085*[#   2]+0.085*[#   3]+0.085*[#   4]+0.065*[#   5]
          +0.065*[#   8]+0.010*[#   6]+0.010*[#   7]+0.010*[#   9]+0.002*[#  10]
          +0.001*[#  15]+0.001*[#  16]+0.001*[#  11]+0.001*[#  12]
    |psi|^2 = 0.771
==== e(   3) =     6.94267 eV ==== 
     psi = 0.174*[#   2]+0.174*[#   3]+0.174*[#   4]+0.020*[#   6]+0.020*[#   7]
          +0.020*[#   9]+0.006*[#  10]+0.004*[#  15]+0.004*[#  16]+0.002*[#  11]
          +0.002*[#  12]+0.002*[#  14]
    |psi|^2 = 0.602
==== e(   4) =    10.60621 eV ==== 
     psi = 0.102*[#   1]+0.022*[#   6]+0.022*[#   7]+0.022*[#   9]+0.010*[#   2]
          +0.010*[#   3]+0.010*[#   4]+0.008*[#  10]+0.006*[#  15]+0.006*[#  16]
          +0.005*[#  11]+0.005*[#  12]+0.004*[#  13]+0.003*[#   5]+0.003*[#   8]
          
    |psi|^2 = 0.239
==== e(   5) =    12.77936 eV ==== 
     psi = 0.247*[#   5]+0.247*[#   8]+0.092*[#   1]+0.029*[#   2]+0.029*[#   3]
          +0.029*[#   4]+0.012*[#   6]+0.012*[#   7]+0.012*[#   9]+0.010*[#  10]
          +0.006*[#  15]+0.006*[#  16]+0.004*[#  11]+0.004*[#  12]
    |psi|^2 = 0.740

 k =  -0.0500000000 -0.0500000000  0.7500000000
==== e(   1) =     2.58996 eV ==== 
     psi = 0.195*[#   5]+0.195*[#   8]+0.185*[#   1]+0.078*[#   2]+0.078*[#   3]
          +0.078*[#   4]+0.024*[#   6]+0.024*[#   7]+0.024*[#   9]+0.002*[#  10]
          +0.001*[#  15]+0.001*[#  16]
    |psi|^2 = 0.885
==== e(   2) =     6.44239 eV ==== 
     psi = 0.154*[#   5]+0.154*[#   8]+0.131*[#   2]+0.131*[#   3]+0.131*[#   4]
          +0.015*[#   6]+0.015*[#   7]+0.015*[#   9]+0.003*[#  10]+0.002*[#  15]
          +0.002*[#  16]+0.002*[#  11]+0.002*[#  12]
    |psi|^2 = 0.759
==== e(   3) =     6.91719 eV ==== 
     psi = 0.159*[#   2]+0.159*[#   3]+0.159*[#   4]+0.072*[#   1]+0.014*[#   6]
          +0.014*[#   7]+0.014*[#   9]+0.012*[#   5]+0.012*[#   8]+0.006*[#  10]
          +0.004*[#  15]+0.004*[#  16]+0.002*[#  11]+0.002*[#  12]
    |psi|^2 = 0.633
==== e(   4) =     9.93049 eV ==== 
     psi = 0.023*[#   2]+0.023*[#   3]+0.023*[#   4]+0.019*[#   6]+0.019*[#   7]
          +0.019*[#   9]+0.005*[#  13]+0.005*[#  11]+0.005*[#  12]+0.004*[#  15]
          +0.004*[#  16]+0.004*[#  10]+0.001*[#   5]+0.001*[#   8]
    |psi|^2 = 0.157
==== e(   5) =    12.67127 eV ==== 
     psi = 0.329*[#   1]+0.013*[#   6]+0.013*[#   7]+0.013*[#   9]+0.013*[#  10]
          +0.009*[#   5]+0.009*[#   8]+0.008*[#   2]+0.008*[#   3]+0.008*[#   4]
          +0.008*[#  15]+0.008*[#  16]+0.005*[#  11]+0.005*[#  12]
    |psi|^2 = 0.452

 k =  -0.0500000000 -0.1000000000  0.8000000000
==== e(   1) =     3.38056 eV ==== 
     psi = 0.229*[#   1]+0.105*[#   2]+0.105*[#   3]+0.105*[#   4]+0.035*[#   5]
          +0.035*[#   8]+0.025*[#   6]+0.025*[#   7]+0.025*[#   9]+0.002*[#  10]
          +0.001*[#  15]+0.001*[#  16]
    |psi|^2 = 0.693
==== e(   2) =     5.62135 eV ==== 
     psi = 0.172*[#   5]+0.172*[#   8]+0.105*[#   2]+0.105*[#   3]+0.105*[#   4]
          +0.068*[#   1]+0.018*[#   6]+0.018*[#   7]+0.018*[#   9]+0.002*[#  10]
          +0.002*[#  15]+0.002*[#  16]+0.001*[#  11]+0.001*[#  12]
    |psi|^2 = 0.790
==== e(   3) =     6.69216 eV ==== 
     psi = 0.151*[#   2]+0.151*[#   3]+0.151*[#   4]+0.129*[#   1]+0.023*[#   5]
          +0.023*[#   8]+0.014*[#   6]+0.014*[#   7]+0.014*[#   9]+0.007*[#  10]
          +0.004*[#  15]+0.004*[#  16]+0.003*[#  11]+0.003*[#  12]+0.001*[#  14]
          
    |psi|^2 = 0.689
==== e(   4) =    10.27468 eV ==== 
     psi = 0.027*[#   2]+0.027*[#   3]+0.027*[#   4]+0.027*[#   6]+0.027*[#   7]
          +0.027*[#   9]+0.019*[#   1]+0.006*[#  10]+0.005*[#  15]+0.005*[#  16]
          +0.004*[#  11]+0.004*[#  12]+0.004*[#   5]+0.004*[#   8]+0.003*[#  13]
          
    |psi|^2 = 0.217
==== e(   5) =    12.24631 eV ==== 
     psi = 0.164*[#   1]+0.128*[#   5]+0.128*[#   8]+0.021*[#   2]+0.021*[#   3]
          +0.021*[#   4]+0.020*[#   6]+0.020*[#   7]+0.020*[#   9]+0.010*[#  10]
          +0.007*[#  15]+0.007*[#  16]+0.004*[#  11]+0.004*[#  12]
    |psi|^2 = 0.575

 k =  -0.0500000000  0.8500000000 -0.1500000000
==== e(   1) =     3.90196 eV ==== 
     psi = 0.108*[#   2]+0.108*[#   3]+0.108*[#   4]+0.045*[#   5]+0.045*[#   8]
          +0.005*[#   6]+0.005*[#   7]+0.005*[#   9]+0.001*[#  10]
    |psi|^2 = 0.435
==== e(   2) =     5.06250 eV ==== 
     psi = 0.259*[#   1]+0.094*[#   2]+0.094*[#   3]+0.094*[#   4]+0.085*[#   5]
          +0.085*[#   8]+0.017*[#   6]+0.017*[#   7]+0.017*[#   9]+0.002*[#  10]
          +0.001*[#  15]+0.001*[#  16]
    |psi|^2 = 0.766
==== e(   3) =     6.62451 eV ==== 
     psi = 0.182*[#   1]+0.148*[#   2]+0.148*[#   3]+0.148*[#   4]+0.029*[#   5]
          +0.029*[#   8]+0.012*[#   6]+0.012*[#   7]+0.012*[#   9]+0.007*[#  10]
          +0.004*[#  15]+0.004*[#  16]+0.003*[#  11]+0.003*[#  12]+0.001*[#  14]
          
    |psi|^2 = 0.741
==== e(   4) =    10.52896 eV ==== 
     psi = 0.073*[#   1]+0.024*[#   6]+0.024*[#   7]+0.024*[#   9]+0.022*[#   2]
          +0.022*[#   3]+0.022*[#   4]+0.008*[#  10]+0.006*[#  15]+0.006*[#  16]
          +0.004*[#  11]+0.004*[#  12]+0.003*[#   5]+0.003*[#   8]+0.002*[#  13]
          
    |psi|^2 = 0.251
==== e(   5) =    11.96861 eV ==== 
     psi = 0.218*[#   5]+0.218*[#   8]+0.030*[#   2]+0.030*[#   3]+0.030*[#   4]
          +0.008*[#  10]+0.006*[#   6]+0.006*[#   7]+0.006*[#   9]+0.005*[#  15]
          +0.005*[#  16]+0.004*[#  11]+0.004*[#  12]
    |psi|^2 = 0.570

 k =  -0.1000000000  0.9000000000 -0.1500000000
==== e(   1) =     4.17300 eV ==== 
     psi = 0.103*[#   2]+0.103*[#   3]+0.103*[#   4]+0.075*[#   1]+0.066*[#   5]
          +0.066*[#   8]+0.012*[#   6]+0.012*[#   7]+0.012*[#   9]+0.001*[#  10]
          
    |psi|^2 = 0.554
==== e(   2) =     5.04404 eV ==== 
     psi = 0.186*[#   5]+0.186*[#   8]+0.102*[#   2]+0.102*[#   3]+0.102*[#   4]
          +0.020*[#   6]+0.020*[#   7]+0.020*[#   9]+0.001*[#  10]+0.001*[#  15]
          +0.001*[#  16]
    |psi|^2 = 0.742
==== e(   3) =     6.41592 eV ==== 
     psi = 0.403*[#   1]+0.125*[#   2]+0.125*[#   3]+0.125*[#   4]+0.014*[#   5]
          +0.014*[#   8]+0.007*[#   6]+0.007*[#   7]+0.007*[#   9]+0.007*[#  10]
          +0.004*[#  15]+0.004*[#  16]+0.003*[#  11]+0.003*[#  12]
    |psi|^2 = 0.847
==== e(   4) =    10.69658 eV ==== 
     psi = 0.034*[#   6]+0.034*[#   7]+0.034*[#   9]+0.033*[#   2]+0.033*[#   3]
          +0.033*[#   4]+0.031*[#   5]+0.031*[#   8]+0.008*[#  10]+0.006*[#  15]
          +0.006*[#  16]+0.004*[#  11]+0.004*[#  12]+0.002*[#  13]
    |psi|^2 = 0.292
==== e(   5) =    11.50419 eV ==== 
     psi = 0.129*[#   5]+0.129*[#   8]+0.029*[#   2]+0.029*[#   3]+0.029*[#   4]
          +0.019*[#   6]+0.019*[#   7]+0.019*[#   9]+0.013*[#   1]+0.008*[#  10]
          +0.006*[#  15]+0.006*[#  16]+0.004*[#  11]+0.004*[#  12]
    |psi|^2 = 0.442

 k =   0.0000000000  0.0000000000  0.7500000000
==== e(   1) =     2.56236 eV ==== 
     psi = 0.217*[#   5]+0.217*[#   8]+0.216*[#   1]+0.075*[#   2]+0.075*[#   3]
          +0.075*[#   4]+0.002*[#  10]+0.001*[#  15]+0.001*[#  16]
    |psi|^2 = 0.879
==== e(   2) =     6.94410 eV ==== 
     psi = 0.173*[#   2]+0.173*[#   3]+0.173*[#   4]+0.015*[#   6]+0.015*[#   7]
          +0.015*[#   9]+0.006*[#  10]+0.004*[#  15]+0.004*[#  16]+0.002*[#  11]
          +0.002*[#  12]
    |psi|^2 = 0.581
==== e(   3) =     6.94410 eV ==== 
     psi = 0.173*[#   2]+0.173*[#   3]+0.173*[#   4]+0.015*[#   6]+0.015*[#   7]
          +0.015*[#   9]+0.006*[#  10]+0.004*[#  15]+0.004*[#  16]+0.002*[#  11]
          +0.002*[#  12]
    |psi|^2 = 0.581
==== e(   4) =     9.30170 eV ==== 
     psi = 0.133*[#   5]+0.133*[#   8]+0.007*[#  13]+0.004*[#  11]+0.004*[#  12]
          +0.002*[#  15]+0.002*[#  16]
    |psi|^2 = 0.285
==== e(   5) =    12.51943 eV ==== 
     psi = 0.341*[#   1]+0.014*[#  10]+0.008*[#  15]+0.008*[#  16]+0.006*[#   5]
          +0.006*[#   8]+0.005*[#  11]+0.005*[#  12]
    |psi|^2 = 0.394

 k =   0.0000000000 -0.0500000000  0.8000000000
==== e(   1) =     3.35524 eV ==== 
     psi = 0.304*[#   1]+0.099*[#   2]+0.099*[#   3]+0.099*[#   4]+0.053*[#   5]
          +0.053*[#   8]+0.007*[#   6]+0.007*[#   7]+0.007*[#   9]+0.002*[#  10]
          +0.002*[#  15]+0.002*[#  16]
    |psi|^2 = 0.736
==== e(   2) =     6.35302 eV ==== 
     psi = 0.140*[#   2]+0.140*[#   3]+0.140*[#   4]+0.114*[#   5]+0.114*[#   8]
          +0.038*[#   1]+0.014*[#   6]+0.014*[#   7]+0.014*[#   9]+0.005*[#  10]
          +0.003*[#  15]+0.003*[#  16]+0.002*[#  11]+0.002*[#  12]
    |psi|^2 = 0.742
==== e(   3) =     6.69619 eV ==== 
     psi = 0.174*[#   2]+0.174*[#   3]+0.174*[#   4]+0.020*[#   6]+0.020*[#   7]
          +0.020*[#   9]+0.007*[#  10]+0.004*[#  15]+0.004*[#  16]+0.003*[#  11]
          +0.003*[#  12]
    |psi|^2 = 0.602
==== e(   4) =     9.34099 eV ==== 
     psi = 0.092*[#   5]+0.092*[#   8]+0.017*[#   2]+0.017*[#   3]+0.017*[#   4]
          +0.007*[#   1]+0.004*[#  13]+0.003*[#  11]+0.003*[#  12]+0.003*[#  15]
          +0.003*[#  16]+0.002*[#  10]+0.001*[#   6]+0.001*[#   7]+0.001*[#   9]
          
    |psi|^2 = 0.267
==== e(   5) =    11.88876 eV ==== 
     psi = 0.229*[#   1]+0.067*[#   5]+0.067*[#   8]+0.013*[#   2]+0.013*[#   3]
          +0.013*[#   4]+0.011*[#  10]+0.007*[#  15]+0.007*[#  16]+0.004*[#   6]
          +0.004*[#   7]+0.004*[#   9]+0.004*[#  11]+0.004*[#  12]
    |psi|^2 = 0.446

 k =   0.0000000000 -0.1000000000  0.8500000000
==== e(   1) =     4.12462 eV ==== 
     psi = 0.125*[#   1]+0.100*[#   2]+0.100*[#   3]+0.100*[#   4]+0.060*[#   5]
          +0.060*[#   8]+0.002*[#  10]+0.001*[#  15]+0.001*[#  16]
    |psi|^2 = 0.551
==== e(   2) =     5.56245 eV ==== 
     psi = 0.186*[#   1]+0.145*[#   5]+0.145*[#   8]+0.103*[#   2]+0.103*[#   3]
          +0.103*[#   4]+0.010*[#   6]+0.010*[#   7]+0.010*[#   9]+0.003*[#  10]
          +0.002*[#  15]+0.002*[#  16]+0.001*[#  11]+0.001*[#  12]
    |psi|^2 = 0.828
==== e(   3) =     6.57186 eV ==== 
     psi = 0.174*[#   2]+0.174*[#   3]+0.174*[#   4]+0.021*[#   6]+0.021*[#   7]
          +0.021*[#   9]+0.007*[#  10]+0.004*[#  15]+0.004*[#  16]+0.003*[#  11]
          +0.003*[#  12]
    |psi|^2 = 0.607
==== e(   4) =     9.72885 eV ==== 
     psi = 0.091*[#   1]+0.036*[#   5]+0.036*[#   8]+0.022*[#   2]+0.022*[#   3]
          +0.022*[#   4]+0.010*[#   6]+0.010*[#   7]+0.010*[#   9]+0.006*[#  10]
          +0.005*[#  15]+0.005*[#  16]+0.004*[#  11]+0.004*[#  12]+0.002*[#  13]
          
    |psi|^2 = 0.285
==== e(   5) =    11.27018 eV ==== 
     psi = 0.102*[#   5]+0.102*[#   8]+0.029*[#   1]+0.029*[#   2]+0.029*[#   3]
          +0.029*[#   4]+0.008*[#  10]+0.005*[#  15]+0.005*[#  16]+0.003*[#  11]
          +0.003*[#  12]+0.002*[#   6]+0.002*[#   7]+0.002*[#   9]
    |psi|^2 = 0.352

 k =  -0.0500000000 -0.0500000000  0.8500000000
==== e(   1) =     4.17307 eV ==== 
     psi = 0.213*[#   1]+0.099*[#   2]+0.099*[#   3]+0.099*[#   4]+0.041*[#   5]
          +0.041*[#   8]+0.002*[#  10]+0.001*[#  15]+0.001*[#  16]+0.001*[#   6]
          +0.001*[#   7]+0.001*[#   9]
    |psi|^2 = 0.600
==== e(   2) =     5.94143 eV ==== 
     psi = 0.174*[#   5]+0.174*[#   8]+0.128*[#   2]+0.128*[#   3]+0.128*[#   4]
          +0.011*[#   6]+0.011*[#   7]+0.011*[#   9]+0.004*[#  10]+0.003*[#  15]
          +0.003*[#  16]+0.002*[#  11]+0.002*[#  12]
    |psi|^2 = 0.779
==== e(   3) =     6.43116 eV ==== 
     psi = 0.157*[#   2]+0.157*[#   3]+0.157*[#   4]+0.128*[#   1]+0.014*[#   5]
          +0.014*[#   8]+0.013*[#   6]+0.013*[#   7]+0.013*[#   9]+0.007*[#  10]
          +0.005*[#  15]+0.005*[#  16]+0.003*[#  11]+0.003*[#  12]
    |psi|^2 = 0.689
==== e(   4) =     9.41676 eV ==== 
     psi = 0.060*[#   5]+0.060*[#   8]+0.030*[#   2]+0.030*[#   3]+0.030*[#   4]
          +0.004*[#  10]+0.003*[#  15]+0.003*[#  16]+0.003*[#  11]+0.003*[#  12]
          +0.002*[#  13]+0.001*[#   6]+0.001*[#   7]+0.001*[#   9]
    |psi|^2 = 0.233
==== e(   5) =    11.01366 eV ==== 
     psi = 0.063*[#   1]+0.053*[#   5]+0.053*[#   8]+0.026*[#   2]+0.026*[#   3]
          +0.026*[#   4]+0.008*[#  10]+0.005*[#  15]+0.005*[#  16]+0.003*[#  11]
          +0.003*[#  12]+0.002*[#   6]+0.002*[#   7]+0.002*[#   9]
    |psi|^2 = 0.280

 k =  -0.0500000000  0.9000000000 -0.1000000000
==== e(   1) =     4.79090 eV ==== 
     psi = 0.212*[#   5]+0.212*[#   8]+0.097*[#   2]+0.097*[#   3]+0.097*[#   4]
          +0.003*[#   6]+0.003*[#   7]+0.003*[#   9]+0.002*[#  10]+0.001*[#  15]
          +0.001*[#  16]
    |psi|^2 = 0.731
==== e(   2) =     5.41241 eV ==== 
     psi = 0.188*[#   5]+0.188*[#   8]+0.107*[#   2]+0.107*[#   3]+0.107*[#   4]
          +0.082*[#   1]+0.008*[#   6]+0.008*[#   7]+0.008*[#   9]+0.003*[#  10]
          +0.002*[#  15]+0.002*[#  16]+0.001*[#  11]+0.001*[#  12]
    |psi|^2 = 0.813
==== e(   3) =     6.34021 eV ==== 
     psi = 0.200*[#   1]+0.152*[#   2]+0.152*[#   3]+0.152*[#   4]+0.012*[#   6]
          +0.012*[#   7]+0.012*[#   9]+0.008*[#   5]+0.008*[#   8]+0.008*[#  10]
          +0.005*[#  15]+0.005*[#  16]+0.003*[#  11]+0.003*[#  12]
    |psi|^2 = 0.733
==== e(   4) =     9.75425 eV ==== 
     psi = 0.034*[#   1]+0.034*[#   2]+0.034*[#   3]+0.034*[#   4]+0.018*[#   5]
          +0.018*[#   8]+0.006*[#  10]+0.005*[#   6]+0.005*[#   7]+0.005*[#   9]
          +0.004*[#  15]+0.004*[#  16]+0.003*[#  11]+0.003*[#  12]+0.001*[#  13]
          
    |psi|^2 = 0.208
==== e(   5) =    10.44208 eV ==== 
     psi = 0.038*[#   2]+0.038*[#   3]+0.038*[#   4]+0.011*[#   5]+0.011*[#   8]
          +0.008*[#  10]+0.005*[#  15]+0.005*[#  16]+0.005*[#   6]+0.005*[#   7]
          +0.005*[#   9]+0.003*[#  11]+0.003*[#  12]
    |psi|^2 = 0.175

 k =   0.0000000000  0.0000000000  0.8500000000
==== e(   1) =     4.17078 eV ==== 
     psi = 0.278*[#   1]+0.097*[#   2]+0.097*[#   3]+0.097*[#   4]+0.029*[#   5]
          +0.029*[#   8]+0.002*[#  10]+0.001*[#  15]+0.001*[#  16]
    |psi|^2 = 0.636
==== e(   2) =     6.44798 eV ==== 
     psi = 0.173*[#   2]+0.173*[#   3]+0.173*[#   4]+0.020*[#   6]+0.020*[#   7]
          +0.020*[#   9]+0.008*[#  10]+0.005*[#  15]+0.005*[#  16]+0.003*[#  11]
          +0.003*[#  12]
    |psi|^2 = 0.602
==== e(   3) =     6.44798 eV ==== 
     psi = 0.173*[#   2]+0.173*[#   3]+0.173*[#   4]+0.020*[#   6]+0.020*[#   7]
          +0.020*[#   9]+0.008*[#  10]+0.005*[#  15]+0.005*[#  16]+0.003*[#  11]
          +0.003*[#  12]
    |psi|^2 = 0.602
==== e(   4) =     8.78274 eV ==== 
     psi = 0.278*[#   5]+0.278*[#   8]+0.003*[#  13]+0.002*[#  11]+0.002*[#  12]
          
    |psi|^2 = 0.564
==== e(   5) =    10.83808 eV ==== 
     psi = 0.097*[#   1]+0.028*[#   5]+0.028*[#   8]+0.024*[#   2]+0.024*[#   3]
          +0.024*[#   4]+0.009*[#  10]+0.005*[#  15]+0.005*[#  16]+0.003*[#  11]
          +0.003*[#  12]
    |psi|^2 = 0.250

 k =   0.0000000000 -0.0500000000  0.9000000000
==== e(   1) =     4.98719 eV ==== 
     psi = 0.204*[#   5]+0.204*[#   8]+0.099*[#   2]+0.099*[#   3]+0.099*[#   4]
          +0.074*[#   1]+0.003*[#  10]+0.002*[#  15]+0.002*[#  16]+0.001*[#  11]
          +0.001*[#  12]
    |psi|^2 = 0.788
==== e(   2) =     5.99417 eV ==== 
     psi = 0.139*[#   2]+0.139*[#   3]+0.139*[#   4]+0.103*[#   5]+0.103*[#   8]
          +0.077*[#   1]+0.008*[#   6]+0.008*[#   7]+0.008*[#   9]+0.006*[#  10]
          +0.004*[#  15]+0.004*[#  16]+0.002*[#  11]+0.002*[#  12]
    |psi|^2 = 0.744
==== e(   3) =     6.32393 eV ==== 
     psi = 0.172*[#   2]+0.172*[#   3]+0.172*[#   4]+0.015*[#   6]+0.015*[#   7]
          +0.015*[#   9]+0.008*[#  10]+0.005*[#  15]+0.005*[#  16]+0.003*[#  11]
          +0.003*[#  12]
    |psi|^2 = 0.587
==== e(   4) =     8.93954 eV ==== 
     psi = 0.184*[#   5]+0.184*[#   8]+0.018*[#   2]+0.018*[#   3]+0.018*[#   4]
          +0.018*[#   1]+0.003*[#  10]+0.002*[#  15]+0.002*[#  16]+0.002*[#  11]
          +0.002*[#  12]+0.001*[#  13]
    |psi|^2 = 0.453
==== e(   5) =     9.93511 eV ==== 
     psi = 0.038*[#   2]+0.038*[#   3]+0.038*[#   4]+0.035*[#   1]+0.007*[#  10]
          +0.006*[#   5]+0.006*[#   8]+0.005*[#  15]+0.005*[#  16]+0.003*[#  11]
          +0.003*[#  12]
    |psi|^2 = 0.182

 k =  -0.0500000000  0.9500000000 -0.0500000000
==== e(   1) =     5.69035 eV ==== 
     psi = 0.181*[#   5]+0.181*[#   8]+0.126*[#   2]+0.126*[#   3]+0.126*[#   4]
          +0.005*[#  10]+0.003*[#  15]+0.003*[#  16]+0.002*[#   6]+0.002*[#   7]
          +0.002*[#   9]+0.002*[#  11]+0.002*[#  12]
    |psi|^2 = 0.760
==== e(   2) =     5.69035 eV ==== 
     psi = 0.181*[#   5]+0.181*[#   8]+0.126*[#   2]+0.126*[#   3]+0.126*[#   4]
          +0.005*[#  10]+0.003*[#  15]+0.003*[#  16]+0.002*[#   6]+0.002*[#   7]
          +0.002*[#   9]+0.002*[#  11]+0.002*[#  12]
    |psi|^2 = 0.760
==== e(   3) =     6.20676 eV ==== 
     psi = 0.160*[#   2]+0.160*[#   3]+0.160*[#   4]+0.139*[#   1]+0.010*[#   6]
          +0.010*[#   7]+0.010*[#   9]+0.009*[#  10]+0.005*[#  15]+0.005*[#  16]
          +0.003*[#  11]+0.003*[#  12]
    |psi|^2 = 0.674
==== e(   4) =     9.15985 eV ==== 
     psi = 0.105*[#   5]+0.105*[#   8]+0.032*[#   2]+0.032*[#   3]+0.032*[#   4]
          +0.004*[#  10]+0.003*[#  15]+0.003*[#  16]+0.002*[#  11]+0.002*[#  12]
          
    |psi|^2 = 0.320
==== e(   5) =     9.15985 eV ==== 
     psi = 0.105*[#   5]+0.105*[#   8]+0.032*[#   2]+0.032*[#   3]+0.032*[#   4]
          +0.004*[#  10]+0.003*[#  15]+0.003*[#  16]+0.002*[#  11]+0.002*[#  12]
          
    |psi|^2 = 0.320

 k =   0.0000000000  0.0000000000  0.9500000000
==== e(   1) =     5.77987 eV ==== 
     psi = 0.137*[#   5]+0.137*[#   8]+0.133*[#   2]+0.133*[#   3]+0.133*[#   4]
          +0.041*[#   1]+0.006*[#  10]+0.004*[#  15]+0.004*[#  16]+0.002*[#  11]
          +0.002*[#  12]
    |psi|^2 = 0.732
==== e(   2) =     6.19933 eV ==== 
     psi = 0.170*[#   2]+0.170*[#   3]+0.170*[#   4]+0.009*[#  10]+0.006*[#  15]
          +0.006*[#  16]+0.005*[#   6]+0.005*[#   7]+0.005*[#   9]+0.004*[#  11]
          +0.004*[#  12]
    |psi|^2 = 0.552
==== e(   3) =     6.19933 eV ==== 
     psi = 0.170*[#   2]+0.170*[#   3]+0.170*[#   4]+0.009*[#  10]+0.006*[#  15]
          +0.006*[#  16]+0.005*[#   6]+0.005*[#   7]+0.005*[#   9]+0.004*[#  11]
          +0.004*[#  12]
    |psi|^2 = 0.552
==== e(   4) =     8.52326 eV ==== 
     psi = 0.324*[#   5]+0.324*[#   8]
    |psi|^2 = 0.649
==== e(   5) =     8.92433 eV ==== 
     psi = 0.166*[#   5]+0.166*[#   8]+0.025*[#   2]+0.025*[#   3]+0.025*[#   4]
          +0.012*[#   1]+0.004*[#  10]+0.002*[#  15]+0.002*[#  16]+0.001*[#  11]
          +0.001*[#  12]
    |psi|^2 = 0.429

Lowdin Charges: 

     Atom #   1: total charge =   0.9778, s =  0.2332, 
     Atom #   1: total charge =   0.9778, p =  0.0444, pz=  0.0148, px=  0.0148, py=  0.0148, 
     Atom #   1: total charge =   0.9778, d =  0.7000, dz2=  0.1379, dxz=  0.1414, dyz=  0.1414, dx2-y2=  0.1379, dxy=  0.1414, 
     Atom #   1: total charge =   0.9778, f =  0.0002, fz3=  0.0000, fxz2=  0.0000, fyz2=  0.0000, fzx2-zy2=  0.0000, fxyz=  0.0000, fx3-3xy2=  0.0000, f3yx2-y3=  0.0000, 
     Spilling Parameter:   0.0222

     PROJWFC      :      0.12s CPU      0.15s WALL


   This run was terminated on:  14:29:11   2Feb2026            

=------------------------------------------------------------------------------=
   JOB DONE.
=------------------------------------------------------------------------------=
