 CRYSTAL
 PRIMVEC
    3.403614903    0.000000000    0.000000000
    0.000000000    3.403614903    0.000000000
    0.000000000    0.000000000    3.403614903
 PRIMCOORD
           2           1
Li        0.000000000    0.000000000    0.000000000
Li        1.701807451    1.701807451    1.701807451
BEGIN_BLOCK_DATAGRID_3D
3D_PWSCF
BEGIN_DATAGRID_3D_UNKNOWN
          21          21          21
  0.000000  0.000000  0.000000
    3.403615    0.000000    0.000000
    0.000000    3.403615    0.000000
    0.000000    0.000000    3.403615
  0.111089E-02  0.164329E-02  0.286849E-02  0.416766E-02  0.531021E-02  0.633518E-02
  0.719984E-02  0.779044E-02  0.808643E-02  0.818334E-02  0.819899E-02  0.818334E-02
  0.808643E-02  0.779044E-02  0.719984E-02  0.633518E-02  0.531021E-02  0.416766E-02
  0.286849E-02  0.164329E-02  0.111089E-02  0.164329E-02  0.210471E-02  0.318050E-02
  0.435771E-02  0.543795E-02  0.642900E-02  0.726274E-02  0.782606E-02  0.810556E-02
  0.819656E-02  0.821130E-02  0.819656E-02  0.810556E-02  0.782606E-02  0.726274E-02
  0.642900E-02  0.543795E-02  0.435771E-02  0.318050E-02  0.210471E-02  0.164329E-02
  0.286849E-02  0.318050E-02  0.394217E-02  0.486046E-02  0.579772E-02  0.669395E-02
  0.743491E-02  0.791859E-02  0.815125E-02  0.822584E-02  0.823809E-02  0.822584E-02
  0.815125E-02  0.791859E-02  0.743491E-02  0.669395E-02  0.579772E-02  0.486046E-02
  0.394217E-02  0.318050E-02  0.286849E-02  0.416766E-02  0.435771E-02  0.486046E-02
  0.555134E-02  0.632845E-02  0.707828E-02  0.766986E-02  0.803304E-02  0.819877E-02
  0.825118E-02  0.826036E-02  0.825118E-02  0.819877E-02  0.803304E-02  0.766986E-02
  0.707828E-02  0.632845E-02  0.555134E-02  0.486046E-02  0.435771E-02  0.416766E-02
  0.531021E-02  0.543795E-02  0.579772E-02  0.632845E-02  0.693570E-02  0.749576E-02
  0.790370E-02  0.813246E-02  0.823005E-02  0.826246E-02  0.826963E-02  0.826246E-02
  0.823005E-02  0.813246E-02  0.790370E-02  0.749576E-02  0.693570E-02  0.632845E-02
  0.579772E-02  0.543795E-02  0.531021E-02  0.633518E-02  0.642900E-02  0.669395E-02
  0.707828E-02  0.749576E-02  0.784965E-02  0.808067E-02  0.819566E-02  0.824310E-02
  0.826404E-02  0.827112E-02  0.826404E-02  0.824310E-02  0.819566E-02  0.808067E-02
  0.784965E-02  0.749576E-02  0.707828E-02  0.669395E-02  0.642900E-02  0.633518E-02
  0.719984E-02  0.726274E-02  0.743491E-02  0.766986E-02  0.790370E-02  0.808067E-02
  0.818075E-02  0.822433E-02  0.824574E-02  0.826223E-02  0.826963E-02  0.826223E-02
  0.824574E-02  0.822433E-02  0.818075E-02  0.808067E-02  0.790370E-02  0.766986E-02
  0.743491E-02  0.726274E-02  0.719984E-02  0.779044E-02  0.782606E-02  0.791859E-02
  0.803304E-02  0.813246E-02  0.819566E-02  0.822433E-02  0.823545E-02  0.824477E-02
  0.825533E-02  0.826035E-02  0.825533E-02  0.824477E-02  0.823545E-02  0.822433E-02
  0.819566E-02  0.813246E-02  0.803304E-02  0.791859E-02  0.782606E-02  0.779044E-02
  0.808643E-02  0.810556E-02  0.815125E-02  0.819877E-02  0.823005E-02  0.824310E-02
  0.824574E-02  0.824477E-02  0.824239E-02  0.823948E-02  0.823808E-02  0.823948E-02
  0.824239E-02  0.824477E-02  0.824574E-02  0.824310E-02  0.823005E-02  0.819877E-02
  0.815125E-02  0.810556E-02  0.808643E-02  0.818334E-02  0.819656E-02  0.822584E-02
  0.825118E-02  0.826246E-02  0.826404E-02  0.826223E-02  0.825533E-02  0.823948E-02
  0.822022E-02  0.821129E-02  0.822022E-02  0.823948E-02  0.825533E-02  0.826223E-02
  0.826404E-02  0.826246E-02  0.825118E-02  0.822584E-02  0.819656E-02  0.818334E-02
  0.819899E-02  0.821130E-02  0.823809E-02  0.826036E-02  0.826963E-02  0.827112E-02
  0.826963E-02  0.826035E-02  0.823808E-02  0.821129E-02  0.819899E-02  0.821129E-02
  0.823808E-02  0.826035E-02  0.826963E-02  0.827112E-02  0.826963E-02  0.826036E-02
  0.823809E-02  0.821130E-02  0.819899E-02  0.818334E-02  0.819656E-02  0.822584E-02
  0.825118E-02  0.826246E-02  0.826404E-02  0.826223E-02  0.825533E-02  0.823948E-02
  0.822022E-02  0.821129E-02  0.822022E-02  0.823948E-02  0.825533E-02  0.826223E-02
  0.826404E-02  0.826246E-02  0.825118E-02  0.822584E-02  0.819656E-02  0.818334E-02
  0.808643E-02  0.810556E-02  0.815125E-02  0.819877E-02  0.823005E-02  0.824310E-02
  0.824574E-02  0.824477E-02  0.824239E-02  0.823948E-02  0.823808E-02  0.823948E-02
  0.824239E-02  0.824477E-02  0.824574E-02  0.824310E-02  0.823005E-02  0.819877E-02
  0.815125E-02  0.810556E-02  0.808643E-02  0.779044E-02  0.782606E-02  0.791859E-02
  0.803304E-02  0.813246E-02  0.819566E-02  0.822433E-02  0.823545E-02  0.824477E-02
  0.825533E-02  0.826035E-02  0.825533E-02  0.824477E-02  0.823545E-02  0.822433E-02
  0.819566E-02  0.813246E-02  0.803304E-02  0.791859E-02  0.782606E-02  0.779044E-02
  0.719984E-02  0.726274E-02  0.743491E-02  0.766986E-02  0.790370E-02  0.808067E-02
  0.818075E-02  0.822433E-02  0.824574E-02  0.826223E-02  0.826963E-02  0.826223E-02
  0.824574E-02  0.822433E-02  0.818075E-02  0.808067E-02  0.790370E-02  0.766986E-02
  0.743491E-02  0.726274E-02  0.719984E-02  0.633518E-02  0.642900E-02  0.669395E-02
  0.707828E-02  0.749576E-02  0.784965E-02  0.808067E-02  0.819566E-02  0.824310E-02
  0.826404E-02  0.827112E-02  0.826404E-02  0.824310E-02  0.819566E-02  0.808067E-02
  0.784965E-02  0.749576E-02  0.707828E-02  0.669395E-02  0.642900E-02  0.633518E-02
  0.531021E-02  0.543795E-02  0.579772E-02  0.632845E-02  0.693570E-02  0.749576E-02
  0.790370E-02  0.813246E-02  0.823005E-02  0.826246E-02  0.826963E-02  0.826246E-02
  0.823005E-02  0.813246E-02  0.790370E-02  0.749576E-02  0.693570E-02  0.632845E-02
  0.579772E-02  0.543795E-02  0.531021E-02  0.416766E-02  0.435771E-02  0.486046E-02
  0.555134E-02  0.632845E-02  0.707828E-02  0.766986E-02  0.803304E-02  0.819877E-02
  0.825118E-02  0.826036E-02  0.825118E-02  0.819877E-02  0.803304E-02  0.766986E-02
  0.707828E-02  0.632845E-02  0.555134E-02  0.486046E-02  0.435771E-02  0.416766E-02
  0.286849E-02  0.318050E-02  0.394217E-02  0.486046E-02  0.579772E-02  0.669395E-02
  0.743491E-02  0.791859E-02  0.815125E-02  0.822584E-02  0.823809E-02  0.822584E-02
  0.815125E-02  0.791859E-02  0.743491E-02  0.669395E-02  0.579772E-02  0.486046E-02
  0.394217E-02  0.318050E-02  0.286849E-02  0.164329E-02  0.210471E-02  0.318050E-02
  0.435771E-02  0.543795E-02  0.642900E-02  0.726274E-02  0.782606E-02  0.810556E-02
  0.819656E-02  0.821130E-02  0.819656E-02  0.810556E-02  0.782606E-02  0.726274E-02
  0.642900E-02  0.543795E-02  0.435771E-02  0.318050E-02  0.210471E-02  0.164329E-02
  0.111089E-02  0.164329E-02  0.286849E-02  0.416766E-02  0.531021E-02  0.633518E-02
  0.719984E-02  0.779044E-02  0.808643E-02  0.818334E-02  0.819899E-02  0.818334E-02
  0.808643E-02  0.779044E-02  0.719984E-02  0.633518E-02  0.531021E-02  0.416766E-02
  0.286849E-02  0.164329E-02  0.111089E-02  0.164329E-02  0.210471E-02  0.318050E-02
  0.435771E-02  0.543795E-02  0.642900E-02  0.726274E-02  0.782606E-02  0.810556E-02
  0.819656E-02  0.821130E-02  0.819656E-02  0.810556E-02  0.782606E-02  0.726274E-02
  0.642900E-02  0.543795E-02  0.435771E-02  0.318050E-02  0.210471E-02  0.164329E-02
  0.210471E-02  0.250741E-02  0.345970E-02  0.453564E-02  0.556193E-02  0.651991E-02
  0.732201E-02  0.785784E-02  0.812104E-02  0.820634E-02  0.822022E-02  0.820634E-02
  0.812104E-02  0.785784E-02  0.732201E-02  0.651991E-02  0.556193E-02  0.453564E-02
  0.345970E-02  0.250741E-02  0.210471E-02  0.318050E-02  0.345970E-02  0.415218E-02
  0.501160E-02  0.591112E-02  0.677553E-02  0.748375E-02  0.794046E-02  0.815808E-02
  0.822784E-02  0.823949E-02  0.822784E-02  0.815808E-02  0.794046E-02  0.748375E-02
  0.677553E-02  0.591112E-02  0.501160E-02  0.415218E-02  0.345970E-02  0.318050E-02
  0.435771E-02  0.453564E-02  0.501160E-02  0.567491E-02  0.642470E-02  0.714335E-02
  0.770334E-02  0.804287E-02  0.819684E-02  0.824624E-02  0.825534E-02  0.824624E-02
  0.819684E-02  0.804287E-02  0.770334E-02  0.714335E-02  0.642470E-02  0.567491E-02
  0.501160E-02  0.453564E-02  0.435771E-02  0.543795E-02  0.556193E-02  0.591112E-02
  0.642470E-02  0.700756E-02  0.753873E-02  0.792044E-02  0.813214E-02  0.822286E-02
  0.825458E-02  0.826224E-02  0.825458E-02  0.822286E-02  0.813214E-02  0.792044E-02
  0.753873E-02  0.700756E-02  0.642470E-02  0.591112E-02  0.556193E-02  0.543795E-02
  0.642900E-02  0.651991E-02  0.677553E-02  0.714335E-02  0.753873E-02  0.786989E-02
  0.808344E-02  0.818921E-02  0.823437E-02  0.825623E-02  0.826404E-02  0.825623E-02
  0.823437E-02  0.818921E-02  0.808344E-02  0.786989E-02  0.753873E-02  0.714335E-02
  0.677553E-02  0.651991E-02  0.642900E-02  0.726274E-02  0.732201E-02  0.748375E-02
  0.770334E-02  0.792044E-02  0.808344E-02  0.817503E-02  0.821549E-02  0.823704E-02
  0.825458E-02  0.826246E-02  0.825458E-02  0.823704E-02  0.821549E-02  0.817503E-02
  0.808344E-02  0.792044E-02  0.770334E-02  0.748375E-02  0.732201E-02  0.726274E-02
  0.782606E-02  0.785784E-02  0.794046E-02  0.804287E-02  0.813214E-02  0.818921E-02
  0.821549E-02  0.822627E-02  0.823572E-02  0.824624E-02  0.825118E-02  0.824624E-02
  0.823572E-02  0.822627E-02  0.821549E-02  0.818921E-02  0.813214E-02  0.804287E-02
  0.794046E-02  0.785784E-02  0.782606E-02  0.810556E-02  0.812104E-02  0.815808E-02
  0.819684E-02  0.822286E-02  0.823437E-02  0.823704E-02  0.823572E-02  0.823212E-02
  0.822784E-02  0.822584E-02  0.822784E-02  0.823212E-02  0.823572E-02  0.823704E-02
  0.823437E-02  0.822286E-02  0.819684E-02  0.815808E-02  0.812104E-02  0.810556E-02
  0.819656E-02  0.820634E-02  0.822784E-02  0.824624E-02  0.825458E-02  0.825623E-02
  0.825458E-02  0.824624E-02  0.822784E-02  0.820634E-02  0.819657E-02  0.820634E-02
  0.822784E-02  0.824624E-02  0.825458E-02  0.825623E-02  0.825458E-02  0.824624E-02
  0.822784E-02  0.820634E-02  0.819656E-02  0.821130E-02  0.822022E-02  0.823949E-02
  0.825534E-02  0.826224E-02  0.826404E-02  0.826246E-02  0.825118E-02  0.822584E-02
  0.819657E-02  0.818334E-02  0.819657E-02  0.822584E-02  0.825118E-02  0.826246E-02
  0.826404E-02  0.826224E-02  0.825534E-02  0.823949E-02  0.822022E-02  0.821130E-02
  0.819656E-02  0.820634E-02  0.822784E-02  0.824624E-02  0.825458E-02  0.825623E-02
  0.825458E-02  0.824624E-02  0.822784E-02  0.820634E-02  0.819657E-02  0.820634E-02
  0.822784E-02  0.824624E-02  0.825458E-02  0.825623E-02  0.825458E-02  0.824624E-02
  0.822784E-02  0.820634E-02  0.819656E-02  0.810556E-02  0.812104E-02  0.815808E-02
  0.819684E-02  0.822286E-02  0.823437E-02  0.823704E-02  0.823572E-02  0.823212E-02
  0.822784E-02  0.822584E-02  0.822784E-02  0.823212E-02  0.823572E-02  0.823704E-02
  0.823437E-02  0.822286E-02  0.819684E-02  0.815808E-02  0.812104E-02  0.810556E-02
  0.782606E-02  0.785784E-02  0.794046E-02  0.804287E-02  0.813214E-02  0.818921E-02
  0.821549E-02  0.822627E-02  0.823572E-02  0.824624E-02  0.825118E-02  0.824624E-02
  0.823572E-02  0.822627E-02  0.821549E-02  0.818921E-02  0.813214E-02  0.804287E-02
  0.794046E-02  0.785784E-02  0.782606E-02  0.726274E-02  0.732201E-02  0.748375E-02
  0.770334E-02  0.792044E-02  0.808344E-02  0.817503E-02  0.821549E-02  0.823704E-02
  0.825458E-02  0.826246E-02  0.825458E-02  0.823704E-02  0.821549E-02  0.817503E-02
  0.808344E-02  0.792044E-02  0.770334E-02  0.748375E-02  0.732201E-02  0.726274E-02
  0.642900E-02  0.651991E-02  0.677553E-02  0.714335E-02  0.753873E-02  0.786989E-02
  0.808344E-02  0.818921E-02  0.823437E-02  0.825623E-02  0.826404E-02  0.825623E-02
  0.823437E-02  0.818921E-02  0.808344E-02  0.786989E-02  0.753873E-02  0.714335E-02
  0.677553E-02  0.651991E-02  0.642900E-02  0.543795E-02  0.556193E-02  0.591112E-02
  0.642470E-02  0.700756E-02  0.753873E-02  0.792044E-02  0.813214E-02  0.822286E-02
  0.825458E-02  0.826224E-02  0.825458E-02  0.822286E-02  0.813214E-02  0.792044E-02
  0.753873E-02  0.700756E-02  0.642470E-02  0.591112E-02  0.556193E-02  0.543795E-02
  0.435771E-02  0.453564E-02  0.501160E-02  0.567491E-02  0.642470E-02  0.714335E-02
  0.770334E-02  0.804287E-02  0.819684E-02  0.824624E-02  0.825534E-02  0.824624E-02
  0.819684E-02  0.804287E-02  0.770334E-02  0.714335E-02  0.642470E-02  0.567491E-02
  0.501160E-02  0.453564E-02  0.435771E-02  0.318050E-02  0.345970E-02  0.415218E-02
  0.501160E-02  0.591112E-02  0.677553E-02  0.748375E-02  0.794046E-02  0.815808E-02
  0.822784E-02  0.823949E-02  0.822784E-02  0.815808E-02  0.794046E-02  0.748375E-02
  0.677553E-02  0.591112E-02  0.501160E-02  0.415218E-02  0.345970E-02  0.318050E-02
  0.210471E-02  0.250741E-02  0.345970E-02  0.453564E-02  0.556193E-02  0.651991E-02
  0.732201E-02  0.785784E-02  0.812104E-02  0.820634E-02  0.822022E-02  0.820634E-02
  0.812104E-02  0.785784E-02  0.732201E-02  0.651991E-02  0.556193E-02  0.453564E-02
  0.345970E-02  0.250741E-02  0.210471E-02  0.164329E-02  0.210471E-02  0.318050E-02
  0.435771E-02  0.543795E-02  0.642900E-02  0.726274E-02  0.782606E-02  0.810556E-02
  0.819656E-02  0.821130E-02  0.819656E-02  0.810556E-02  0.782606E-02  0.726274E-02
  0.642900E-02  0.543795E-02  0.435771E-02  0.318050E-02  0.210471E-02  0.164329E-02
  0.286849E-02  0.318050E-02  0.394217E-02  0.486046E-02  0.579772E-02  0.669395E-02
  0.743491E-02  0.791859E-02  0.815125E-02  0.822584E-02  0.823809E-02  0.822584E-02
  0.815125E-02  0.791859E-02  0.743491E-02  0.669395E-02  0.579772E-02  0.486046E-02
  0.394217E-02  0.318050E-02  0.286849E-02  0.318050E-02  0.345970E-02  0.415218E-02
  0.501160E-02  0.591112E-02  0.677553E-02  0.748375E-02  0.794046E-02  0.815808E-02
  0.822784E-02  0.823949E-02  0.822784E-02  0.815808E-02  0.794046E-02  0.748375E-02
  0.677553E-02  0.591112E-02  0.501160E-02  0.415218E-02  0.345970E-02  0.318050E-02
  0.394217E-02  0.415218E-02  0.469750E-02  0.542616E-02  0.622974E-02  0.700241E-02
  0.761636E-02  0.799795E-02  0.817494E-02  0.823212E-02  0.824239E-02  0.823212E-02
  0.817494E-02  0.799795E-02  0.761636E-02  0.700241E-02  0.622974E-02  0.542616E-02
  0.469750E-02  0.415218E-02  0.394217E-02  0.486046E-02  0.501160E-02  0.542616E-02
  0.601989E-02  0.669288E-02  0.732230E-02  0.779461E-02  0.807055E-02  0.819379E-02
  0.823573E-02  0.824477E-02  0.823573E-02  0.819379E-02  0.807055E-02  0.779461E-02
  0.732230E-02  0.669288E-02  0.601989E-02  0.542616E-02  0.501160E-02  0.486046E-02
  0.579772E-02  0.591112E-02  0.622974E-02  0.669288E-02  0.720561E-02  0.765668E-02
  0.796802E-02  0.813489E-02  0.820753E-02  0.823705E-02  0.824574E-02  0.823705E-02
  0.820753E-02  0.813489E-02  0.796802E-02  0.765668E-02  0.720561E-02  0.669288E-02
  0.622974E-02  0.591112E-02  0.579772E-02  0.669395E-02  0.677553E-02  0.700241E-02
  0.732230E-02  0.765668E-02  0.792722E-02  0.809477E-02  0.817541E-02  0.821244E-02
  0.823437E-02  0.824311E-02  0.823437E-02  0.821244E-02  0.817541E-02  0.809477E-02
  0.792722E-02  0.765668E-02  0.732230E-02  0.700241E-02  0.677553E-02  0.669395E-02
  0.743491E-02  0.748375E-02  0.761636E-02  0.779461E-02  0.796802E-02  0.809477E-02
  0.816274E-02  0.819114E-02  0.820753E-02  0.822286E-02  0.823005E-02  0.822286E-02
  0.820753E-02  0.819114E-02  0.816274E-02  0.809477E-02  0.796802E-02  0.779461E-02
  0.761636E-02  0.748375E-02  0.743491E-02  0.791859E-02  0.794046E-02  0.799795E-02
  0.807055E-02  0.813489E-02  0.817541E-02  0.819114E-02  0.819320E-02  0.819380E-02
  0.819684E-02  0.819878E-02  0.819684E-02  0.819380E-02  0.819320E-02  0.819114E-02
  0.817541E-02  0.813489E-02  0.807055E-02  0.799795E-02  0.794046E-02  0.791859E-02
  0.815125E-02  0.815808E-02  0.817494E-02  0.819379E-02  0.820753E-02  0.821244E-02
  0.820753E-02  0.819380E-02  0.817495E-02  0.815809E-02  0.815126E-02  0.815809E-02
  0.817495E-02  0.819380E-02  0.820753E-02  0.821244E-02  0.820753E-02  0.819379E-02
  0.817494E-02  0.815808E-02  0.815125E-02  0.822584E-02  0.822784E-02  0.823212E-02
  0.823573E-02  0.823705E-02  0.823437E-02  0.822286E-02  0.819684E-02  0.815809E-02
  0.812105E-02  0.810557E-02  0.812105E-02  0.815809E-02  0.819684E-02  0.822286E-02
  0.823437E-02  0.823705E-02  0.823573E-02  0.823212E-02  0.822784E-02  0.822584E-02
  0.823809E-02  0.823949E-02  0.824239E-02  0.824477E-02  0.824574E-02  0.824311E-02
  0.823005E-02  0.819878E-02  0.815126E-02  0.810557E-02  0.808644E-02  0.810557E-02
  0.815126E-02  0.819878E-02  0.823005E-02  0.824311E-02  0.824574E-02  0.824477E-02
  0.824239E-02  0.823949E-02  0.823809E-02  0.822584E-02  0.822784E-02  0.823212E-02
  0.823573E-02  0.823705E-02  0.823437E-02  0.822286E-02  0.819684E-02  0.815809E-02
  0.812105E-02  0.810557E-02  0.812105E-02  0.815809E-02  0.819684E-02  0.822286E-02
  0.823437E-02  0.823705E-02  0.823573E-02  0.823212E-02  0.822784E-02  0.822584E-02
  0.815125E-02  0.815808E-02  0.817494E-02  0.819379E-02  0.820753E-02  0.821244E-02
  0.820753E-02  0.819380E-02  0.817495E-02  0.815809E-02  0.815126E-02  0.815809E-02
  0.817495E-02  0.819380E-02  0.820753E-02  0.821244E-02  0.820753E-02  0.819379E-02
  0.817494E-02  0.815808E-02  0.815125E-02  0.791859E-02  0.794046E-02  0.799795E-02
  0.807055E-02  0.813489E-02  0.817541E-02  0.819114E-02  0.819320E-02  0.819380E-02
  0.819684E-02  0.819878E-02  0.819684E-02  0.819380E-02  0.819320E-02  0.819114E-02
  0.817541E-02  0.813489E-02  0.807055E-02  0.799795E-02  0.794046E-02  0.791859E-02
  0.743491E-02  0.748375E-02  0.761636E-02  0.779461E-02  0.796802E-02  0.809477E-02
  0.816274E-02  0.819114E-02  0.820753E-02  0.822286E-02  0.823005E-02  0.822286E-02
  0.820753E-02  0.819114E-02  0.816274E-02  0.809477E-02  0.796802E-02  0.779461E-02
  0.761636E-02  0.748375E-02  0.743491E-02  0.669395E-02  0.677553E-02  0.700241E-02
  0.732230E-02  0.765668E-02  0.792722E-02  0.809477E-02  0.817541E-02  0.821244E-02
  0.823437E-02  0.824311E-02  0.823437E-02  0.821244E-02  0.817541E-02  0.809477E-02
  0.792722E-02  0.765668E-02  0.732230E-02  0.700241E-02  0.677553E-02  0.669395E-02
  0.579772E-02  0.591112E-02  0.622974E-02  0.669288E-02  0.720561E-02  0.765668E-02
  0.796802E-02  0.813489E-02  0.820753E-02  0.823705E-02  0.824574E-02  0.823705E-02
  0.820753E-02  0.813489E-02  0.796802E-02  0.765668E-02  0.720561E-02  0.669288E-02
  0.622974E-02  0.591112E-02  0.579772E-02  0.486046E-02  0.501160E-02  0.542616E-02
  0.601989E-02  0.669288E-02  0.732230E-02  0.779461E-02  0.807055E-02  0.819379E-02
  0.823573E-02  0.824477E-02  0.823573E-02  0.819379E-02  0.807055E-02  0.779461E-02
  0.732230E-02  0.669288E-02  0.601989E-02  0.542616E-02  0.501160E-02  0.486046E-02
  0.394217E-02  0.415218E-02  0.469750E-02  0.542616E-02  0.622974E-02  0.700241E-02
  0.761636E-02  0.799795E-02  0.817494E-02  0.823212E-02  0.824239E-02  0.823212E-02
  0.817494E-02  0.799795E-02  0.761636E-02  0.700241E-02  0.622974E-02  0.542616E-02
  0.469750E-02  0.415218E-02  0.394217E-02  0.318050E-02  0.345970E-02  0.415218E-02
  0.501160E-02  0.591112E-02  0.677553E-02  0.748375E-02  0.794046E-02  0.815808E-02
  0.822784E-02  0.823949E-02  0.822784E-02  0.815808E-02  0.794046E-02  0.748375E-02
  0.677553E-02  0.591112E-02  0.501160E-02  0.415218E-02  0.345970E-02  0.318050E-02
  0.286849E-02  0.318050E-02  0.394217E-02  0.486046E-02  0.579772E-02  0.669395E-02
  0.743491E-02  0.791859E-02  0.815125E-02  0.822584E-02  0.823809E-02  0.822584E-02
  0.815125E-02  0.791859E-02  0.743491E-02  0.669395E-02  0.579772E-02  0.486046E-02
  0.394217E-02  0.318050E-02  0.286849E-02  0.416766E-02  0.435771E-02  0.486046E-02
  0.555134E-02  0.632845E-02  0.707828E-02  0.766986E-02  0.803304E-02  0.819877E-02
  0.825118E-02  0.826036E-02  0.825118E-02  0.819877E-02  0.803304E-02  0.766986E-02
  0.707828E-02  0.632845E-02  0.555134E-02  0.486046E-02  0.435771E-02  0.416766E-02
  0.435771E-02  0.453564E-02  0.501160E-02  0.567491E-02  0.642470E-02  0.714335E-02
  0.770334E-02  0.804287E-02  0.819684E-02  0.824624E-02  0.825534E-02  0.824624E-02
  0.819684E-02  0.804287E-02  0.770334E-02  0.714335E-02  0.642470E-02  0.567491E-02
  0.501160E-02  0.453564E-02  0.435771E-02  0.486046E-02  0.501160E-02  0.542616E-02
  0.601989E-02  0.669288E-02  0.732230E-02  0.779461E-02  0.807055E-02  0.819379E-02
  0.823573E-02  0.824477E-02  0.823573E-02  0.819379E-02  0.807055E-02  0.779461E-02
  0.732230E-02  0.669288E-02  0.601989E-02  0.542616E-02  0.501160E-02  0.486046E-02
  0.555134E-02  0.567491E-02  0.601989E-02  0.651913E-02  0.707413E-02  0.756889E-02
  0.791739E-02  0.810880E-02  0.819319E-02  0.822628E-02  0.823545E-02  0.822628E-02
  0.819319E-02  0.810880E-02  0.791739E-02  0.756889E-02  0.707413E-02  0.651913E-02
  0.601989E-02  0.567491E-02  0.555134E-02  0.632845E-02  0.642470E-02  0.669288E-02
  0.707413E-02  0.747979E-02  0.781734E-02  0.803459E-02  0.814314E-02  0.819114E-02
  0.821550E-02  0.822434E-02  0.821550E-02  0.819114E-02  0.814314E-02  0.803459E-02
  0.781734E-02  0.747979E-02  0.707413E-02  0.669288E-02  0.642470E-02  0.632845E-02
  0.707828E-02  0.714335E-02  0.732230E-02  0.756889E-02  0.781734E-02  0.800705E-02
  0.811358E-02  0.815710E-02  0.817541E-02  0.818922E-02  0.819567E-02  0.818922E-02
  0.817541E-02  0.815710E-02  0.811358E-02  0.800705E-02  0.781734E-02  0.756889E-02
  0.732230E-02  0.714335E-02  0.707828E-02  0.766986E-02  0.770334E-02  0.779461E-02
  0.791739E-02  0.803459E-02  0.811358E-02  0.814434E-02  0.814315E-02  0.813490E-02
  0.813215E-02  0.813247E-02  0.813215E-02  0.813490E-02  0.814315E-02  0.814434E-02
  0.811358E-02  0.803459E-02  0.791739E-02  0.779461E-02  0.770334E-02  0.766986E-02
  0.803304E-02  0.804287E-02  0.807055E-02  0.810880E-02  0.814314E-02  0.815710E-02
  0.814315E-02  0.810881E-02  0.807056E-02  0.804289E-02  0.803306E-02  0.804289E-02
  0.807056E-02  0.810881E-02  0.814315E-02  0.815710E-02  0.814314E-02  0.810880E-02
  0.807055E-02  0.804287E-02  0.803304E-02  0.819877E-02  0.819684E-02  0.819379E-02
  0.819319E-02  0.819114E-02  0.817541E-02  0.813490E-02  0.807056E-02  0.799796E-02
  0.794048E-02  0.791861E-02  0.794048E-02  0.799796E-02  0.807056E-02  0.813490E-02
  0.817541E-02  0.819114E-02  0.819319E-02  0.819379E-02  0.819684E-02  0.819877E-02
  0.825118E-02  0.824624E-02  0.823573E-02  0.822628E-02  0.821550E-02  0.818922E-02
  0.813215E-02  0.804289E-02  0.794048E-02  0.785786E-02  0.782608E-02  0.785786E-02
  0.794048E-02  0.804289E-02  0.813215E-02  0.818922E-02  0.821550E-02  0.822628E-02
  0.823573E-02  0.824624E-02  0.825118E-02  0.826036E-02  0.825534E-02  0.824477E-02
  0.823545E-02  0.822434E-02  0.819567E-02  0.813247E-02  0.803306E-02  0.791861E-02
  0.782608E-02  0.779046E-02  0.782608E-02  0.791861E-02  0.803306E-02  0.813247E-02
  0.819567E-02  0.822434E-02  0.823545E-02  0.824477E-02  0.825534E-02  0.826036E-02
  0.825118E-02  0.824624E-02  0.823573E-02  0.822628E-02  0.821550E-02  0.818922E-02
  0.813215E-02  0.804289E-02  0.794048E-02  0.785786E-02  0.782608E-02  0.785786E-02
  0.794048E-02  0.804289E-02  0.813215E-02  0.818922E-02  0.821550E-02  0.822628E-02
  0.823573E-02  0.824624E-02  0.825118E-02  0.819877E-02  0.819684E-02  0.819379E-02
  0.819319E-02  0.819114E-02  0.817541E-02  0.813490E-02  0.807056E-02  0.799796E-02
  0.794048E-02  0.791861E-02  0.794048E-02  0.799796E-02  0.807056E-02  0.813490E-02
  0.817541E-02  0.819114E-02  0.819319E-02  0.819379E-02  0.819684E-02  0.819877E-02
  0.803304E-02  0.804287E-02  0.807055E-02  0.810880E-02  0.814314E-02  0.815710E-02
  0.814315E-02  0.810881E-02  0.807056E-02  0.804289E-02  0.803306E-02  0.804289E-02
  0.807056E-02  0.810881E-02  0.814315E-02  0.815710E-02  0.814314E-02  0.810880E-02
  0.807055E-02  0.804287E-02  0.803304E-02  0.766986E-02  0.770334E-02  0.779461E-02
  0.791739E-02  0.803459E-02  0.811358E-02  0.814434E-02  0.814315E-02  0.813490E-02
  0.813215E-02  0.813247E-02  0.813215E-02  0.813490E-02  0.814315E-02  0.814434E-02
  0.811358E-02  0.803459E-02  0.791739E-02  0.779461E-02  0.770334E-02  0.766986E-02
  0.707828E-02  0.714335E-02  0.732230E-02  0.756889E-02  0.781734E-02  0.800705E-02
  0.811358E-02  0.815710E-02  0.817541E-02  0.818922E-02  0.819567E-02  0.818922E-02
  0.817541E-02  0.815710E-02  0.811358E-02  0.800705E-02  0.781734E-02  0.756889E-02
  0.732230E-02  0.714335E-02  0.707828E-02  0.632845E-02  0.642470E-02  0.669288E-02
  0.707413E-02  0.747979E-02  0.781734E-02  0.803459E-02  0.814314E-02  0.819114E-02
  0.821550E-02  0.822434E-02  0.821550E-02  0.819114E-02  0.814314E-02  0.803459E-02
  0.781734E-02  0.747979E-02  0.707413E-02  0.669288E-02  0.642470E-02  0.632845E-02
  0.555134E-02  0.567491E-02  0.601989E-02  0.651913E-02  0.707413E-02  0.756889E-02
  0.791739E-02  0.810880E-02  0.819319E-02  0.822628E-02  0.823545E-02  0.822628E-02
  0.819319E-02  0.810880E-02  0.791739E-02  0.756889E-02  0.707413E-02  0.651913E-02
  0.601989E-02  0.567491E-02  0.555134E-02  0.486046E-02  0.501160E-02  0.542616E-02
  0.601989E-02  0.669288E-02  0.732230E-02  0.779461E-02  0.807055E-02  0.819379E-02
  0.823573E-02  0.824477E-02  0.823573E-02  0.819379E-02  0.807055E-02  0.779461E-02
  0.732230E-02  0.669288E-02  0.601989E-02  0.542616E-02  0.501160E-02  0.486046E-02
  0.435771E-02  0.453564E-02  0.501160E-02  0.567491E-02  0.642470E-02  0.714335E-02
  0.770334E-02  0.804287E-02  0.819684E-02  0.824624E-02  0.825534E-02  0.824624E-02
  0.819684E-02  0.804287E-02  0.770334E-02  0.714335E-02  0.642470E-02  0.567491E-02
  0.501160E-02  0.453564E-02  0.435771E-02  0.416766E-02  0.435771E-02  0.486046E-02
  0.555134E-02  0.632845E-02  0.707828E-02  0.766986E-02  0.803304E-02  0.819877E-02
  0.825118E-02  0.826036E-02  0.825118E-02  0.819877E-02  0.803304E-02  0.766986E-02
  0.707828E-02  0.632845E-02  0.555134E-02  0.486046E-02  0.435771E-02  0.416766E-02
  0.531021E-02  0.543795E-02  0.579772E-02  0.632845E-02  0.693570E-02  0.749576E-02
  0.790370E-02  0.813246E-02  0.823005E-02  0.826246E-02  0.826963E-02  0.826246E-02
  0.823005E-02  0.813246E-02  0.790370E-02  0.749576E-02  0.693570E-02  0.632845E-02
  0.579772E-02  0.543795E-02  0.531021E-02  0.543795E-02  0.556193E-02  0.591112E-02
  0.642470E-02  0.700756E-02  0.753873E-02  0.792044E-02  0.813214E-02  0.822286E-02
  0.825458E-02  0.826224E-02  0.825458E-02  0.822286E-02  0.813214E-02  0.792044E-02
  0.753873E-02  0.700756E-02  0.642470E-02  0.591112E-02  0.556193E-02  0.543795E-02
  0.579772E-02  0.591112E-02  0.622974E-02  0.669288E-02  0.720561E-02  0.765668E-02
  0.796802E-02  0.813489E-02  0.820753E-02  0.823705E-02  0.824574E-02  0.823705E-02
  0.820753E-02  0.813489E-02  0.796802E-02  0.765668E-02  0.720561E-02  0.669288E-02
  0.622974E-02  0.591112E-02  0.579772E-02  0.632845E-02  0.642470E-02  0.669288E-02
  0.707413E-02  0.747979E-02  0.781734E-02  0.803459E-02  0.814314E-02  0.819114E-02
  0.821550E-02  0.822434E-02  0.821550E-02  0.819114E-02  0.814314E-02  0.803459E-02
  0.781734E-02  0.747979E-02  0.707413E-02  0.669288E-02  0.642470E-02  0.632845E-02
  0.693570E-02  0.700756E-02  0.720561E-02  0.747979E-02  0.775817E-02  0.797299E-02
  0.809496E-02  0.814434E-02  0.816274E-02  0.817504E-02  0.818077E-02  0.817504E-02
  0.816274E-02  0.814434E-02  0.809496E-02  0.797299E-02  0.775817E-02  0.747979E-02
  0.720561E-02  0.700756E-02  0.693570E-02  0.749576E-02  0.753873E-02  0.765668E-02
  0.781734E-02  0.797299E-02  0.807917E-02  0.811960E-02  0.811358E-02  0.809478E-02
  0.808345E-02  0.808068E-02  0.808345E-02  0.809478E-02  0.811358E-02  0.811960E-02
  0.807917E-02  0.797299E-02  0.781734E-02  0.765668E-02  0.753873E-02  0.749576E-02
  0.790370E-02  0.792044E-02  0.796802E-02  0.803459E-02  0.809496E-02  0.811960E-02
  0.809497E-02  0.803460E-02  0.796803E-02  0.792045E-02  0.790372E-02  0.792045E-02
  0.796803E-02  0.803460E-02  0.809497E-02  0.811960E-02  0.809496E-02  0.803459E-02
  0.796802E-02  0.792044E-02  0.790370E-02  0.813246E-02  0.813214E-02  0.813489E-02
  0.814314E-02  0.814434E-02  0.811358E-02  0.803460E-02  0.791740E-02  0.779462E-02
  0.770336E-02  0.766988E-02  0.770336E-02  0.779462E-02  0.791740E-02  0.803460E-02
  0.811358E-02  0.814434E-02  0.814314E-02  0.813489E-02  0.813214E-02  0.813246E-02
  0.823005E-02  0.822286E-02  0.820753E-02  0.819114E-02  0.816274E-02  0.809478E-02
  0.796803E-02  0.779462E-02  0.761637E-02  0.748376E-02  0.743492E-02  0.748376E-02
  0.761637E-02  0.779462E-02  0.796803E-02  0.809478E-02  0.816274E-02  0.819114E-02
  0.820753E-02  0.822286E-02  0.823005E-02  0.826246E-02  0.825458E-02  0.823705E-02
  0.821550E-02  0.817504E-02  0.808345E-02  0.792045E-02  0.770336E-02  0.748376E-02
  0.732201E-02  0.726275E-02  0.732201E-02  0.748376E-02  0.770336E-02  0.792045E-02
  0.808345E-02  0.817504E-02  0.821550E-02  0.823705E-02  0.825458E-02  0.826246E-02
  0.826963E-02  0.826224E-02  0.824574E-02  0.822434E-02  0.818077E-02  0.808068E-02
  0.790372E-02  0.766988E-02  0.743492E-02  0.726275E-02  0.719984E-02  0.726275E-02
  0.743492E-02  0.766988E-02  0.790372E-02  0.808068E-02  0.818077E-02  0.822434E-02
  0.824574E-02  0.826224E-02  0.826963E-02  0.826246E-02  0.825458E-02  0.823705E-02
  0.821550E-02  0.817504E-02  0.808345E-02  0.792045E-02  0.770336E-02  0.748376E-02
  0.732201E-02  0.726275E-02  0.732201E-02  0.748376E-02  0.770336E-02  0.792045E-02
  0.808345E-02  0.817504E-02  0.821550E-02  0.823705E-02  0.825458E-02  0.826246E-02
  0.823005E-02  0.822286E-02  0.820753E-02  0.819114E-02  0.816274E-02  0.809478E-02
  0.796803E-02  0.779462E-02  0.761637E-02  0.748376E-02  0.743492E-02  0.748376E-02
  0.761637E-02  0.779462E-02  0.796803E-02  0.809478E-02  0.816274E-02  0.819114E-02
  0.820753E-02  0.822286E-02  0.823005E-02  0.813246E-02  0.813214E-02  0.813489E-02
  0.814314E-02  0.814434E-02  0.811358E-02  0.803460E-02  0.791740E-02  0.779462E-02
  0.770336E-02  0.766988E-02  0.770336E-02  0.779462E-02  0.791740E-02  0.803460E-02
  0.811358E-02  0.814434E-02  0.814314E-02  0.813489E-02  0.813214E-02  0.813246E-02
  0.790370E-02  0.792044E-02  0.796802E-02  0.803459E-02  0.809496E-02  0.811960E-02
  0.809497E-02  0.803460E-02  0.796803E-02  0.792045E-02  0.790372E-02  0.792045E-02
  0.796803E-02  0.803460E-02  0.809497E-02  0.811960E-02  0.809496E-02  0.803459E-02