 CRYSTAL
 PRIMVEC
    3.403614903    0.000000000    0.000000000
    0.000000000    3.403614903    0.000000000
    0.000000000    0.000000000    3.403614903
 PRIMCOORD
           2           1
Li        0.000000000    0.000000000    0.000000000
Li        1.701807451    1.701807451    1.701807451
BEGIN_BLOCK_DATAGRID_3D
3D_PWSCF
BEGIN_DATAGRID_3D_UNKNOWN
          21          21          21
  0.000000  0.000000  0.000000
    3.403615    0.000000    0.000000
    0.000000    3.403615    0.000000
    0.000000    0.000000    3.403615
 -0.333076E-02 -0.288920E-02 -0.195884E-02 -0.117026E-02 -0.723035E-03 -0.460828E-03
 -0.187375E-03  0.121548E-03  0.351528E-03  0.458882E-03  0.486482E-03  0.458882E-03
  0.351528E-03  0.121548E-03 -0.187375E-03 -0.460828E-03 -0.723035E-03 -0.117026E-02
 -0.195884E-02 -0.288920E-02 -0.333076E-02 -0.288920E-02 -0.252279E-02 -0.174864E-02
 -0.108731E-02 -0.700926E-03 -0.449970E-03 -0.169605E-03  0.139605E-03  0.363334E-03
  0.466903E-03  0.493753E-03  0.466903E-03  0.363334E-03  0.139605E-03 -0.169605E-03
 -0.449970E-03 -0.700926E-03 -0.108731E-02 -0.174864E-02 -0.252279E-02 -0.288920E-02
 -0.195884E-02 -0.174864E-02 -0.129791E-02 -0.898232E-03 -0.632528E-03 -0.399109E-03
 -0.109147E-03  0.188887E-03  0.393994E-03  0.489971E-03  0.515767E-03  0.489971E-03
  0.393994E-03  0.188887E-03 -0.109147E-03 -0.399109E-03 -0.632528E-03 -0.898232E-03
 -0.129791E-02 -0.174864E-02 -0.195884E-02 -0.117026E-02 -0.108731E-02 -0.898232E-03
 -0.705361E-03 -0.522205E-03 -0.289160E-03 -0.412778E-05  0.254765E-03  0.425383E-03
  0.509575E-03  0.533649E-03  0.509575E-03  0.425383E-03  0.254765E-03 -0.412778E-05
 -0.289160E-03 -0.522205E-03 -0.705361E-03 -0.898232E-03 -0.108731E-02 -0.117026E-02
 -0.723035E-03 -0.700926E-03 -0.632528E-03 -0.522205E-03 -0.355694E-03 -0.121793E-03
  0.124674E-03  0.318589E-03  0.444403E-03  0.513260E-03  0.535176E-03  0.513260E-03
  0.444403E-03  0.318589E-03  0.124674E-03 -0.121793E-03 -0.355694E-03 -0.522205E-03
 -0.632528E-03 -0.700926E-03 -0.723035E-03 -0.460828E-03 -0.449970E-03 -0.399109E-03
 -0.289160E-03 -0.121793E-03  0.726026E-04  0.242098E-03  0.366977E-03  0.455651E-03
  0.512765E-03  0.533562E-03  0.512765E-03  0.455651E-03  0.366977E-03  0.242098E-03
  0.726026E-04 -0.121793E-03 -0.289160E-03 -0.399109E-03 -0.449970E-03 -0.460828E-03
 -0.187375E-03 -0.169605E-03 -0.109147E-03 -0.412778E-05  0.124674E-03  0.242098E-03
  0.330276E-03  0.401764E-03  0.465848E-03  0.515419E-03  0.535171E-03  0.515419E-03
  0.465848E-03  0.401764E-03  0.330276E-03  0.242098E-03  0.124674E-03 -0.412778E-05
 -0.109147E-03 -0.169605E-03 -0.187375E-03  0.121548E-03  0.139605E-03  0.188887E-03
  0.254765E-03  0.318589E-03  0.366977E-03  0.401764E-03  0.437684E-03  0.480782E-03
  0.518585E-03  0.533641E-03  0.518585E-03  0.480782E-03  0.437684E-03  0.401764E-03
  0.366977E-03  0.318589E-03  0.254765E-03  0.188887E-03  0.139605E-03  0.121548E-03
  0.351528E-03  0.363334E-03  0.393994E-03  0.425383E-03  0.444403E-03  0.455651E-03
  0.465848E-03  0.480782E-03  0.499098E-03  0.511838E-03  0.515761E-03  0.511838E-03
  0.499098E-03  0.480782E-03  0.465848E-03  0.455651E-03  0.444403E-03  0.425383E-03
  0.393994E-03  0.363334E-03  0.351528E-03  0.458882E-03  0.466903E-03  0.489971E-03
  0.509575E-03  0.513260E-03  0.512765E-03  0.515419E-03  0.518585E-03  0.511838E-03
  0.498975E-03  0.493751E-03  0.498975E-03  0.511838E-03  0.518585E-03  0.515419E-03
  0.512765E-03  0.513260E-03  0.509575E-03  0.489971E-03  0.466903E-03  0.458882E-03
  0.486482E-03  0.493753E-03  0.515767E-03  0.533649E-03  0.535176E-03  0.533562E-03
  0.535171E-03  0.533641E-03  0.515761E-03  0.493751E-03  0.486481E-03  0.493751E-03
  0.515761E-03  0.533641E-03  0.535171E-03  0.533562E-03  0.535176E-03  0.533649E-03
  0.515767E-03  0.493753E-03  0.486482E-03  0.458882E-03  0.466903E-03  0.489971E-03
  0.509575E-03  0.513260E-03  0.512765E-03  0.515419E-03  0.518585E-03  0.511838E-03
  0.498975E-03  0.493751E-03  0.498975E-03  0.511838E-03  0.518585E-03  0.515419E-03
  0.512765E-03  0.513260E-03  0.509575E-03  0.489971E-03  0.466903E-03  0.458882E-03
  0.351528E-03  0.363334E-03  0.393994E-03  0.425383E-03  0.444403E-03  0.455651E-03
  0.465848E-03  0.480782E-03  0.499098E-03  0.511838E-03  0.515761E-03  0.511838E-03
  0.499098E-03  0.480782E-03  0.465848E-03  0.455651E-03  0.444403E-03  0.425383E-03
  0.393994E-03  0.363334E-03  0.351528E-03  0.121548E-03  0.139605E-03  0.188887E-03
  0.254765E-03  0.318589E-03  0.366977E-03  0.401764E-03  0.437684E-03  0.480782E-03
  0.518585E-03  0.533641E-03  0.518585E-03  0.480782E-03  0.437684E-03  0.401764E-03
  0.366977E-03  0.318589E-03  0.254765E-03  0.188887E-03  0.139605E-03  0.121548E-03
 -0.187375E-03 -0.169605E-03 -0.109147E-03 -0.412778E-05  0.124674E-03  0.242098E-03
  0.330276E-03  0.401764E-03  0.465848E-03  0.515419E-03  0.535171E-03  0.515419E-03
  0.465848E-03  0.401764E-03  0.330276E-03  0.242098E-03  0.124674E-03 -0.412778E-05
 -0.109147E-03 -0.169605E-03 -0.187375E-03 -0.460828E-03 -0.449970E-03 -0.399109E-03
 -0.289160E-03 -0.121793E-03  0.726026E-04  0.242098E-03  0.366977E-03  0.455651E-03
  0.512765E-03  0.533562E-03  0.512765E-03  0.455651E-03  0.366977E-03  0.242098E-03
  0.726026E-04 -0.121793E-03 -0.289160E-03 -0.399109E-03 -0.449970E-03 -0.460828E-03
 -0.723035E-03 -0.700926E-03 -0.632528E-03 -0.522205E-03 -0.355694E-03 -0.121793E-03
  0.124674E-03  0.318589E-03  0.444403E-03  0.513260E-03  0.535176E-03  0.513260E-03
  0.444403E-03  0.318589E-03  0.124674E-03 -0.121793E-03 -0.355694E-03 -0.522205E-03
 -0.632528E-03 -0.700926E-03 -0.723035E-03 -0.117026E-02 -0.108731E-02 -0.898232E-03
 -0.705361E-03 -0.522205E-03 -0.289160E-03 -0.412778E-05  0.254765E-03  0.425383E-03
  0.509575E-03  0.533649E-03  0.509575E-03  0.425383E-03  0.254765E-03 -0.412778E-05
 -0.289160E-03 -0.522205E-03 -0.705361E-03 -0.898232E-03 -0.108731E-02 -0.117026E-02
 -0.195884E-02 -0.174864E-02 -0.129791E-02 -0.898232E-03 -0.632528E-03 -0.399109E-03
 -0.109147E-03  0.188887E-03  0.393994E-03  0.489971E-03  0.515767E-03  0.489971E-03
  0.393994E-03  0.188887E-03 -0.109147E-03 -0.399109E-03 -0.632528E-03 -0.898232E-03
 -0.129791E-02 -0.174864E-02 -0.195884E-02 -0.288920E-02 -0.252279E-02 -0.174864E-02
 -0.108731E-02 -0.700926E-03 -0.449970E-03 -0.169605E-03  0.139605E-03  0.363334E-03
  0.466903E-03  0.493753E-03  0.466903E-03  0.363334E-03  0.139605E-03 -0.169605E-03
 -0.449970E-03 -0.700926E-03 -0.108731E-02 -0.174864E-02 -0.252279E-02 -0.288920E-02
 -0.333076E-02 -0.288920E-02 -0.195884E-02 -0.117026E-02 -0.723035E-03 -0.460828E-03
 -0.187375E-03  0.121548E-03  0.351528E-03  0.458882E-03  0.486482E-03  0.458882E-03
  0.351528E-03  0.121548E-03 -0.187375E-03 -0.460828E-03 -0.723035E-03 -0.117026E-02
 -0.195884E-02 -0.288920E-02 -0.333076E-02 -0.288920E-02 -0.252279E-02 -0.174864E-02
 -0.108731E-02 -0.700926E-03 -0.449970E-03 -0.169605E-03  0.139605E-03  0.363334E-03
  0.466903E-03  0.493753E-03  0.466903E-03  0.363334E-03  0.139605E-03 -0.169605E-03
 -0.449970E-03 -0.700926E-03 -0.108731E-02 -0.174864E-02 -0.252279E-02 -0.288920E-02
 -0.252279E-02 -0.221891E-02 -0.157403E-02 -0.101666E-02 -0.679189E-03 -0.437393E-03
 -0.152495E-03  0.154861E-03  0.371876E-03  0.472356E-03  0.498979E-03  0.472356E-03
  0.371876E-03  0.154861E-03 -0.152495E-03 -0.437393E-03 -0.679189E-03 -0.101666E-02
 -0.157403E-02 -0.221891E-02 -0.252279E-02 -0.174864E-02 -0.157403E-02 -0.119595E-02
 -0.852279E-03 -0.611180E-03 -0.383164E-03 -0.945253E-04  0.196326E-03  0.392693E-03
  0.485785E-03  0.511844E-03  0.485785E-03  0.392693E-03  0.196326E-03 -0.945253E-04
 -0.383164E-03 -0.611180E-03 -0.852279E-03 -0.119595E-02 -0.157403E-02 -0.174864E-02
 -0.108731E-02 -0.101666E-02 -0.852279E-03 -0.676429E-03 -0.500124E-03 -0.272575E-03
  0.431422E-05  0.252295E-03  0.413817E-03  0.494738E-03  0.518593E-03  0.494738E-03
  0.413817E-03  0.252295E-03  0.431422E-05 -0.272575E-03 -0.500124E-03 -0.676429E-03
 -0.852279E-03 -0.101666E-02 -0.108731E-02 -0.700926E-03 -0.679189E-03 -0.611180E-03
 -0.500124E-03 -0.336211E-03 -0.111997E-03  0.122213E-03  0.306195E-03  0.427054E-03
  0.494241E-03  0.515424E-03  0.494241E-03  0.427054E-03  0.306195E-03  0.122213E-03
 -0.111997E-03 -0.336211E-03 -0.500124E-03 -0.611180E-03 -0.679189E-03 -0.700926E-03
 -0.449970E-03 -0.437393E-03 -0.383164E-03 -0.272575E-03 -0.111997E-03  0.709468E-04
  0.230167E-03  0.347964E-03  0.435306E-03  0.492766E-03  0.512767E-03  0.492766E-03
  0.435306E-03  0.347964E-03  0.230167E-03  0.709468E-04 -0.111997E-03 -0.272575E-03
 -0.383164E-03 -0.437393E-03 -0.449970E-03 -0.169605E-03 -0.152495E-03 -0.945253E-04
  0.431422E-05  0.122213E-03  0.230167E-03  0.313174E-03  0.380362E-03  0.443899E-03
  0.494239E-03  0.513257E-03  0.494239E-03  0.443899E-03  0.380362E-03  0.313174E-03
  0.230167E-03  0.122213E-03  0.431422E-05 -0.945253E-04 -0.152495E-03 -0.169605E-03
  0.139605E-03  0.154861E-03  0.196326E-03  0.252295E-03  0.306195E-03  0.347964E-03
  0.380362E-03  0.413763E-03  0.456148E-03  0.494736E-03  0.509572E-03  0.494736E-03
  0.456148E-03  0.413763E-03  0.380362E-03  0.347964E-03  0.306195E-03  0.252295E-03
  0.196326E-03  0.154861E-03  0.139605E-03  0.363334E-03  0.371876E-03  0.392693E-03
  0.413817E-03  0.427054E-03  0.435306E-03  0.443899E-03  0.456148E-03  0.472634E-03
  0.485784E-03  0.489970E-03  0.485784E-03  0.472634E-03  0.456148E-03  0.443899E-03
  0.435306E-03  0.427054E-03  0.413817E-03  0.392693E-03  0.371876E-03  0.363334E-03
  0.466903E-03  0.472356E-03  0.485785E-03  0.494738E-03  0.494241E-03  0.492766E-03
  0.494239E-03  0.494736E-03  0.485784E-03  0.472358E-03  0.466906E-03  0.472358E-03
  0.485784E-03  0.494736E-03  0.494239E-03  0.492766E-03  0.494241E-03  0.494738E-03
  0.485785E-03  0.472356E-03  0.466903E-03  0.493753E-03  0.498979E-03  0.511844E-03
  0.518593E-03  0.515424E-03  0.512767E-03  0.513257E-03  0.509572E-03  0.489970E-03
  0.466906E-03  0.458887E-03  0.466906E-03  0.489970E-03  0.509572E-03  0.513257E-03
  0.512767E-03  0.515424E-03  0.518593E-03  0.511844E-03  0.498979E-03  0.493753E-03
  0.466903E-03  0.472356E-03  0.485785E-03  0.494738E-03  0.494241E-03  0.492766E-03
  0.494239E-03  0.494736E-03  0.485784E-03  0.472358E-03  0.466906E-03  0.472358E-03
  0.485784E-03  0.494736E-03  0.494239E-03  0.492766E-03  0.494241E-03  0.494738E-03
  0.485785E-03  0.472356E-03  0.466903E-03  0.363334E-03  0.371876E-03  0.392693E-03
  0.413817E-03  0.427054E-03  0.435306E-03  0.443899E-03  0.456148E-03  0.472634E-03
  0.485784E-03  0.489970E-03  0.485784E-03  0.472634E-03  0.456148E-03  0.443899E-03
  0.435306E-03  0.427054E-03  0.413817E-03  0.392693E-03  0.371876E-03  0.363334E-03
  0.139605E-03  0.154861E-03  0.196326E-03  0.252295E-03  0.306195E-03  0.347964E-03
  0.380362E-03  0.413763E-03  0.456148E-03  0.494736E-03  0.509572E-03  0.494736E-03
  0.456148E-03  0.413763E-03  0.380362E-03  0.347964E-03  0.306195E-03  0.252295E-03
  0.196326E-03  0.154861E-03  0.139605E-03 -0.169605E-03 -0.152495E-03 -0.945253E-04
  0.431422E-05  0.122213E-03  0.230167E-03  0.313174E-03  0.380362E-03  0.443899E-03
  0.494239E-03  0.513257E-03  0.494239E-03  0.443899E-03  0.380362E-03  0.313174E-03
  0.230167E-03  0.122213E-03  0.431422E-05 -0.945253E-04 -0.152495E-03 -0.169605E-03
 -0.449970E-03 -0.437393E-03 -0.383164E-03 -0.272575E-03 -0.111997E-03  0.709468E-04
  0.230167E-03  0.347964E-03  0.435306E-03  0.492766E-03  0.512767E-03  0.492766E-03
  0.435306E-03  0.347964E-03  0.230167E-03  0.709468E-04 -0.111997E-03 -0.272575E-03
 -0.383164E-03 -0.437393E-03 -0.449970E-03 -0.700926E-03 -0.679189E-03 -0.611180E-03
 -0.500124E-03 -0.336211E-03 -0.111997E-03  0.122213E-03  0.306195E-03  0.427054E-03
  0.494241E-03  0.515424E-03  0.494241E-03  0.427054E-03  0.306195E-03  0.122213E-03
 -0.111997E-03 -0.336211E-03 -0.500124E-03 -0.611180E-03 -0.679189E-03 -0.700926E-03
 -0.108731E-02 -0.101666E-02 -0.852279E-03 -0.676429E-03 -0.500124E-03 -0.272575E-03
  0.431422E-05  0.252295E-03  0.413817E-03  0.494738E-03  0.518593E-03  0.494738E-03
  0.413817E-03  0.252295E-03  0.431422E-05 -0.272575E-03 -0.500124E-03 -0.676429E-03
 -0.852279E-03 -0.101666E-02 -0.108731E-02 -0.174864E-02 -0.157403E-02 -0.119595E-02
 -0.852279E-03 -0.611180E-03 -0.383164E-03 -0.945253E-04  0.196326E-03  0.392693E-03
  0.485785E-03  0.511844E-03  0.485785E-03  0.392693E-03  0.196326E-03 -0.945253E-04
 -0.383164E-03 -0.611180E-03 -0.852279E-03 -0.119595E-02 -0.157403E-02 -0.174864E-02
 -0.252279E-02 -0.221891E-02 -0.157403E-02 -0.101666E-02 -0.679189E-03 -0.437393E-03
 -0.152495E-03  0.154861E-03  0.371876E-03  0.472356E-03  0.498979E-03  0.472356E-03
  0.371876E-03  0.154861E-03 -0.152495E-03 -0.437393E-03 -0.679189E-03 -0.101666E-02
 -0.157403E-02 -0.221891E-02 -0.252279E-02 -0.288920E-02 -0.252279E-02 -0.174864E-02
 -0.108731E-02 -0.700926E-03 -0.449970E-03 -0.169605E-03  0.139605E-03  0.363334E-03
  0.466903E-03  0.493753E-03  0.466903E-03  0.363334E-03  0.139605E-03 -0.169605E-03
 -0.449970E-03 -0.700926E-03 -0.108731E-02 -0.174864E-02 -0.252279E-02 -0.288920E-02
 -0.195884E-02 -0.174864E-02 -0.129791E-02 -0.898232E-03 -0.632528E-03 -0.399109E-03
 -0.109147E-03  0.188887E-03  0.393994E-03  0.489971E-03  0.515767E-03  0.489971E-03
  0.393994E-03  0.188887E-03 -0.109147E-03 -0.399109E-03 -0.632528E-03 -0.898232E-03
 -0.129791E-02 -0.174864E-02 -0.195884E-02 -0.174864E-02 -0.157403E-02 -0.119595E-02
 -0.852279E-03 -0.611180E-03 -0.383164E-03 -0.945253E-04  0.196326E-03  0.392693E-03
  0.485785E-03  0.511844E-03  0.485785E-03  0.392693E-03  0.196326E-03 -0.945253E-04
 -0.383164E-03 -0.611180E-03 -0.852279E-03 -0.119595E-02 -0.157403E-02 -0.174864E-02
 -0.129791E-02 -0.119595E-02 -0.968007E-03 -0.741431E-03 -0.548116E-03 -0.327409E-03
 -0.481567E-04  0.215265E-03  0.386788E-03  0.472635E-03  0.499104E-03  0.472635E-03
  0.386788E-03  0.215265E-03 -0.481567E-04 -0.327409E-03 -0.548116E-03 -0.741431E-03
 -0.968007E-03 -0.119595E-02 -0.129791E-02 -0.898232E-03 -0.852279E-03 -0.741431E-03
 -0.605897E-03 -0.443011E-03 -0.225193E-03  0.277990E-04  0.243014E-03  0.381161E-03
  0.456150E-03  0.480788E-03  0.456150E-03  0.381161E-03  0.243014E-03  0.277990E-04
 -0.225193E-03 -0.443011E-03 -0.605897E-03 -0.741431E-03 -0.852279E-03 -0.898232E-03
 -0.632528E-03 -0.611180E-03 -0.548116E-03 -0.443011E-03 -0.286797E-03 -0.849764E-04
  0.115897E-03  0.271203E-03  0.378290E-03  0.443902E-03  0.465854E-03  0.443902E-03
  0.378290E-03  0.271203E-03  0.115897E-03 -0.849764E-04 -0.286797E-03 -0.443011E-03
 -0.548116E-03 -0.611180E-03 -0.632528E-03 -0.399109E-03 -0.383164E-03 -0.327409E-03
 -0.225193E-03 -0.849764E-04  0.685046E-04  0.198906E-03  0.295781E-03  0.376444E-03
  0.435310E-03  0.455656E-03  0.435310E-03  0.376444E-03  0.295781E-03  0.198906E-03
  0.685046E-04 -0.849764E-04 -0.225193E-03 -0.327409E-03 -0.383164E-03 -0.399109E-03
 -0.109147E-03 -0.945253E-04 -0.481567E-04  0.277990E-04  0.115897E-03  0.198906E-03
  0.266618E-03  0.321044E-03  0.378293E-03  0.427059E-03  0.444409E-03  0.427059E-03
  0.378293E-03  0.321044E-03  0.266618E-03  0.198906E-03  0.115897E-03  0.277990E-04
 -0.481567E-04 -0.945253E-04 -0.109147E-03  0.188887E-03  0.196326E-03  0.215265E-03
  0.243014E-03  0.271203E-03  0.295781E-03  0.321044E-03  0.346871E-03  0.381167E-03
  0.413824E-03  0.425390E-03  0.413824E-03  0.381167E-03  0.346871E-03  0.321044E-03
  0.295781E-03  0.271203E-03  0.243014E-03  0.215265E-03  0.196326E-03  0.188887E-03
  0.393994E-03  0.392693E-03  0.386788E-03  0.381161E-03  0.378290E-03  0.376444E-03
  0.378293E-03  0.381167E-03  0.386796E-03  0.392703E-03  0.394004E-03  0.392703E-03
  0.386796E-03  0.381167E-03  0.378293E-03  0.376444E-03  0.378290E-03  0.381161E-03
  0.386788E-03  0.392693E-03  0.393994E-03  0.489971E-03  0.485785E-03  0.472635E-03
  0.456150E-03  0.443902E-03  0.435310E-03  0.427059E-03  0.413824E-03  0.392703E-03
  0.371888E-03  0.363348E-03  0.371888E-03  0.392703E-03  0.413824E-03  0.427059E-03
  0.435310E-03  0.443902E-03  0.456150E-03  0.472635E-03  0.485785E-03  0.489971E-03
  0.515767E-03  0.511844E-03  0.499104E-03  0.480788E-03  0.465854E-03  0.455656E-03
  0.444409E-03  0.425390E-03  0.394004E-03  0.363348E-03  0.351543E-03  0.363348E-03
  0.394004E-03  0.425390E-03  0.444409E-03  0.455656E-03  0.465854E-03  0.480788E-03
  0.499104E-03  0.511844E-03  0.515767E-03  0.489971E-03  0.485785E-03  0.472635E-03
  0.456150E-03  0.443902E-03  0.435310E-03  0.427059E-03  0.413824E-03  0.392703E-03
  0.371888E-03  0.363348E-03  0.371888E-03  0.392703E-03  0.413824E-03  0.427059E-03
  0.435310E-03  0.443902E-03  0.456150E-03  0.472635E-03  0.485785E-03  0.489971E-03
  0.393994E-03  0.392693E-03  0.386788E-03  0.381161E-03  0.378290E-03  0.376444E-03
  0.378293E-03  0.381167E-03  0.386796E-03  0.392703E-03  0.394004E-03  0.392703E-03
  0.386796E-03  0.381167E-03  0.378293E-03  0.376444E-03  0.378290E-03  0.381161E-03
  0.386788E-03  0.392693E-03  0.393994E-03  0.188887E-03  0.196326E-03  0.215265E-03
  0.243014E-03  0.271203E-03  0.295781E-03  0.321044E-03  0.346871E-03  0.381167E-03
  0.413824E-03  0.425390E-03  0.413824E-03  0.381167E-03  0.346871E-03  0.321044E-03
  0.295781E-03  0.271203E-03  0.243014E-03  0.215265E-03  0.196326E-03  0.188887E-03
 -0.109147E-03 -0.945253E-04 -0.481567E-04  0.277990E-04  0.115897E-03  0.198906E-03
  0.266618E-03  0.321044E-03  0.378293E-03  0.427059E-03  0.444409E-03  0.427059E-03
  0.378293E-03  0.321044E-03  0.266618E-03  0.198906E-03  0.115897E-03  0.277990E-04
 -0.481567E-04 -0.945253E-04 -0.109147E-03 -0.399109E-03 -0.383164E-03 -0.327409E-03
 -0.225193E-03 -0.849764E-04  0.685046E-04  0.198906E-03  0.295781E-03  0.376444E-03
  0.435310E-03  0.455656E-03  0.435310E-03  0.376444E-03  0.295781E-03  0.198906E-03
  0.685046E-04 -0.849764E-04 -0.225193E-03 -0.327409E-03 -0.383164E-03 -0.399109E-03
 -0.632528E-03 -0.611180E-03 -0.548116E-03 -0.443011E-03 -0.286797E-03 -0.849764E-04
  0.115897E-03  0.271203E-03  0.378290E-03  0.443902E-03  0.465854E-03  0.443902E-03
  0.378290E-03  0.271203E-03  0.115897E-03 -0.849764E-04 -0.286797E-03 -0.443011E-03
 -0.548116E-03 -0.611180E-03 -0.632528E-03 -0.898232E-03 -0.852279E-03 -0.741431E-03
 -0.605897E-03 -0.443011E-03 -0.225193E-03  0.277990E-04  0.243014E-03  0.381161E-03
  0.456150E-03  0.480788E-03  0.456150E-03  0.381161E-03  0.243014E-03  0.277990E-04
 -0.225193E-03 -0.443011E-03 -0.605897E-03 -0.741431E-03 -0.852279E-03 -0.898232E-03
 -0.129791E-02 -0.119595E-02 -0.968007E-03 -0.741431E-03 -0.548116E-03 -0.327409E-03
 -0.481567E-04  0.215265E-03  0.386788E-03  0.472635E-03  0.499104E-03  0.472635E-03
  0.386788E-03  0.215265E-03 -0.481567E-04 -0.327409E-03 -0.548116E-03 -0.741431E-03
 -0.968007E-03 -0.119595E-02 -0.129791E-02 -0.174864E-02 -0.157403E-02 -0.119595E-02
 -0.852279E-03 -0.611180E-03 -0.383164E-03 -0.945253E-04  0.196326E-03  0.392693E-03
  0.485785E-03  0.511844E-03  0.485785E-03  0.392693E-03  0.196326E-03 -0.945253E-04
 -0.383164E-03 -0.611180E-03 -0.852279E-03 -0.119595E-02 -0.157403E-02 -0.174864E-02
 -0.195884E-02 -0.174864E-02 -0.129791E-02 -0.898232E-03 -0.632528E-03 -0.399109E-03
 -0.109147E-03  0.188887E-03  0.393994E-03  0.489971E-03  0.515767E-03  0.489971E-03
  0.393994E-03  0.188887E-03 -0.109147E-03 -0.399109E-03 -0.632528E-03 -0.898232E-03
 -0.129791E-02 -0.174864E-02 -0.195884E-02 -0.117026E-02 -0.108731E-02 -0.898232E-03
 -0.705361E-03 -0.522205E-03 -0.289160E-03 -0.412778E-05  0.254765E-03  0.425383E-03
  0.509575E-03  0.533649E-03  0.509575E-03  0.425383E-03  0.254765E-03 -0.412778E-05
 -0.289160E-03 -0.522205E-03 -0.705361E-03 -0.898232E-03 -0.108731E-02 -0.117026E-02
 -0.108731E-02 -0.101666E-02 -0.852279E-03 -0.676429E-03 -0.500124E-03 -0.272575E-03
  0.431422E-05  0.252295E-03  0.413817E-03  0.494738E-03  0.518593E-03  0.494738E-03
  0.413817E-03  0.252295E-03  0.431422E-05 -0.272575E-03 -0.500124E-03 -0.676429E-03
 -0.852279E-03 -0.101666E-02 -0.108731E-02 -0.898232E-03 -0.852279E-03 -0.741431E-03
 -0.605897E-03 -0.443011E-03 -0.225193E-03  0.277990E-04  0.243014E-03  0.381161E-03
  0.456150E-03  0.480788E-03  0.456150E-03  0.381161E-03  0.243014E-03  0.277990E-04
 -0.225193E-03 -0.443011E-03 -0.605897E-03 -0.741431E-03 -0.852279E-03 -0.898232E-03
 -0.705361E-03 -0.676429E-03 -0.605897E-03 -0.502136E-03 -0.347506E-03 -0.143941E-03
  0.678333E-04  0.236201E-03  0.346867E-03  0.413766E-03  0.437690E-03  0.413766E-03
  0.346867E-03  0.236201E-03  0.678333E-04 -0.143941E-03 -0.347506E-03 -0.502136E-03
 -0.605897E-03 -0.676429E-03 -0.705361E-03 -0.522205E-03 -0.500124E-03 -0.443011E-03
 -0.347506E-03 -0.202608E-03 -0.342462E-04  0.116876E-03  0.233593E-03  0.321043E-03
  0.380367E-03  0.401772E-03  0.380367E-03  0.321043E-03  0.233593E-03  0.116876E-03
 -0.342462E-04 -0.202608E-03 -0.347506E-03 -0.443011E-03 -0.500124E-03 -0.522205E-03
 -0.289160E-03 -0.272575E-03 -0.225193E-03 -0.143941E-03 -0.342462E-04  0.757336E-04
  0.162919E-03  0.230988E-03  0.295785E-03  0.347973E-03  0.366987E-03  0.347973E-03
  0.295785E-03  0.230988E-03  0.162919E-03  0.757336E-04 -0.342462E-04 -0.143941E-03
 -0.225193E-03 -0.272575E-03 -0.289160E-03 -0.412778E-05  0.431422E-05  0.277990E-04
  0.678333E-04  0.116876E-03  0.162919E-03  0.201748E-03  0.233598E-03  0.271212E-03
  0.306207E-03  0.318602E-03  0.306207E-03  0.271212E-03  0.233598E-03  0.201748E-03
  0.162919E-03  0.116876E-03  0.678333E-04  0.277990E-04  0.431422E-05 -0.412778E-05
  0.254765E-03  0.252295E-03  0.243014E-03  0.236201E-03  0.233593E-03  0.230988E-03
  0.233598E-03  0.236211E-03  0.243027E-03  0.252310E-03  0.254780E-03  0.252310E-03
  0.243027E-03  0.236211E-03  0.233598E-03  0.230988E-03  0.233593E-03  0.236201E-03
  0.243014E-03  0.252295E-03  0.254765E-03  0.425383E-03  0.413817E-03  0.381161E-03
  0.346867E-03  0.321043E-03  0.295785E-03  0.271212E-03  0.243027E-03  0.215279E-03
  0.196342E-03  0.188903E-03  0.196342E-03  0.215279E-03  0.243027E-03  0.271212E-03
  0.295785E-03  0.321043E-03  0.346867E-03  0.381161E-03  0.413817E-03  0.425383E-03
  0.509575E-03  0.494738E-03  0.456150E-03  0.413766E-03  0.380367E-03  0.347973E-03
  0.306207E-03  0.252310E-03  0.196342E-03  0.154879E-03  0.139623E-03  0.154879E-03
  0.196342E-03  0.252310E-03  0.306207E-03  0.347973E-03  0.380367E-03  0.413766E-03
  0.456150E-03  0.494738E-03  0.509575E-03  0.533649E-03  0.518593E-03  0.480788E-03
  0.437690E-03  0.401772E-03  0.366987E-03  0.318602E-03  0.254780E-03  0.188903E-03
  0.139623E-03  0.121566E-03  0.139623E-03  0.188903E-03  0.254780E-03  0.318602E-03
  0.366987E-03  0.401772E-03  0.437690E-03  0.480788E-03  0.518593E-03  0.533649E-03
  0.509575E-03  0.494738E-03  0.456150E-03  0.413766E-03  0.380367E-03  0.347973E-03
  0.306207E-03  0.252310E-03  0.196342E-03  0.154879E-03  0.139623E-03  0.154879E-03
  0.196342E-03  0.252310E-03  0.306207E-03  0.347973E-03  0.380367E-03  0.413766E-03
  0.456150E-03  0.494738E-03  0.509575E-03  0.425383E-03  0.413817E-03  0.381161E-03
  0.346867E-03  0.321043E-03  0.295785E-03  0.271212E-03  0.243027E-03  0.215279E-03
  0.196342E-03  0.188903E-03  0.196342E-03  0.215279E-03  0.243027E-03  0.271212E-03
  0.295785E-03  0.321043E-03  0.346867E-03  0.381161E-03  0.413817E-03  0.425383E-03
  0.254765E-03  0.252295E-03  0.243014E-03  0.236201E-03  0.233593E-03  0.230988E-03
  0.233598E-03  0.236211E-03  0.243027E-03  0.252310E-03  0.254780E-03  0.252310E-03
  0.243027E-03  0.236211E-03  0.233598E-03  0.230988E-03  0.233593E-03  0.236201E-03
  0.243014E-03  0.252295E-03  0.254765E-03 -0.412778E-05  0.431422E-05  0.277990E-04
  0.678333E-04  0.116876E-03  0.162919E-03  0.201748E-03  0.233598E-03  0.271212E-03
  0.306207E-03  0.318602E-03  0.306207E-03  0.271212E-03  0.233598E-03  0.201748E-03
  0.162919E-03  0.116876E-03  0.678333E-04  0.277990E-04  0.431422E-05 -0.412778E-05
 -0.289160E-03 -0.272575E-03 -0.225193E-03 -0.143941E-03 -0.342462E-04  0.757336E-04
  0.162919E-03  0.230988E-03  0.295785E-03  0.347973E-03  0.366987E-03  0.347973E-03
  0.295785E-03  0.230988E-03  0.162919E-03  0.757336E-04 -0.342462E-04 -0.143941E-03
 -0.225193E-03 -0.272575E-03 -0.289160E-03 -0.522205E-03 -0.500124E-03 -0.443011E-03
 -0.347506E-03 -0.202608E-03 -0.342462E-04  0.116876E-03  0.233593E-03  0.321043E-03
  0.380367E-03  0.401772E-03  0.380367E-03  0.321043E-03  0.233593E-03  0.116876E-03
 -0.342462E-04 -0.202608E-03 -0.347506E-03 -0.443011E-03 -0.500124E-03 -0.522205E-03
 -0.705361E-03 -0.676429E-03 -0.605897E-03 -0.502136E-03 -0.347506E-03 -0.143941E-03
  0.678333E-04  0.236201E-03  0.346867E-03  0.413766E-03  0.437690E-03  0.413766E-03
  0.346867E-03  0.236201E-03  0.678333E-04 -0.143941E-03 -0.347506E-03 -0.502136E-03
 -0.605897E-03 -0.676429E-03 -0.705361E-03 -0.898232E-03 -0.852279E-03 -0.741431E-03
 -0.605897E-03 -0.443011E-03 -0.225193E-03  0.277990E-04  0.243014E-03  0.381161E-03
  0.456150E-03  0.480788E-03  0.456150E-03  0.381161E-03  0.243014E-03  0.277990E-04
 -0.225193E-03 -0.443011E-03 -0.605897E-03 -0.741431E-03 -0.852279E-03 -0.898232E-03
 -0.108731E-02 -0.101666E-02 -0.852279E-03 -0.676429E-03 -0.500124E-03 -0.272575E-03
  0.431422E-05  0.252295E-03  0.413817E-03  0.494738E-03  0.518593E-03  0.494738E-03
  0.413817E-03  0.252295E-03  0.431422E-05 -0.272575E-03 -0.500124E-03 -0.676429E-03
 -0.852279E-03 -0.101666E-02 -0.108731E-02 -0.117026E-02 -0.108731E-02 -0.898232E-03
 -0.705361E-03 -0.522205E-03 -0.289160E-03 -0.412778E-05  0.254765E-03  0.425383E-03
  0.509575E-03  0.533649E-03  0.509575E-03  0.425383E-03  0.254765E-03 -0.412778E-05
 -0.289160E-03 -0.522205E-03 -0.705361E-03 -0.898232E-03 -0.108731E-02 -0.117026E-02
 -0.723035E-03 -0.700926E-03 -0.632528E-03 -0.522205E-03 -0.355694E-03 -0.121793E-03
  0.124674E-03  0.318589E-03  0.444403E-03  0.513260E-03  0.535176E-03  0.513260E-03
  0.444403E-03  0.318589E-03  0.124674E-03 -0.121793E-03 -0.355694E-03 -0.522205E-03
 -0.632528E-03 -0.700926E-03 -0.723035E-03 -0.700926E-03 -0.679189E-03 -0.611180E-03
 -0.500124E-03 -0.336211E-03 -0.111997E-03  0.122213E-03  0.306195E-03  0.427054E-03
  0.494241E-03  0.515424E-03  0.494241E-03  0.427054E-03  0.306195E-03  0.122213E-03
 -0.111997E-03 -0.336211E-03 -0.500124E-03 -0.611180E-03 -0.679189E-03 -0.700926E-03
 -0.632528E-03 -0.611180E-03 -0.548116E-03 -0.443011E-03 -0.286797E-03 -0.849764E-04
  0.115897E-03  0.271203E-03  0.378290E-03  0.443902E-03  0.465854E-03  0.443902E-03
  0.378290E-03  0.271203E-03  0.115897E-03 -0.849764E-04 -0.286797E-03 -0.443011E-03
 -0.548116E-03 -0.611180E-03 -0.632528E-03 -0.522205E-03 -0.500124E-03 -0.443011E-03
 -0.347506E-03 -0.202608E-03 -0.342462E-04  0.116876E-03  0.233593E-03  0.321043E-03
  0.380367E-03  0.401772E-03  0.380367E-03  0.321043E-03  0.233593E-03  0.116876E-03
 -0.342462E-04 -0.202608E-03 -0.347506E-03 -0.443011E-03 -0.500124E-03 -0.522205E-03
 -0.355694E-03 -0.336211E-03 -0.286797E-03 -0.202608E-03 -0.824084E-04  0.348934E-04
  0.126292E-03  0.201747E-03  0.266621E-03  0.313183E-03  0.330287E-03  0.313183E-03
  0.266621E-03  0.201747E-03  0.126292E-03  0.348934E-04 -0.824084E-04 -0.202608E-03
 -0.286797E-03 -0.336211E-03 -0.355694E-03 -0.121793E-03 -0.111997E-03 -0.849764E-04
 -0.342462E-04  0.348934E-04  0.930043E-04  0.130872E-03  0.162923E-03  0.198914E-03
  0.230179E-03  0.242113E-03  0.230179E-03  0.198914E-03  0.162923E-03  0.130872E-03
  0.930043E-04  0.348934E-04 -0.342462E-04 -0.849764E-04 -0.111997E-03 -0.121793E-03
  0.124674E-03  0.122213E-03  0.115897E-03  0.116876E-03  0.126292E-03  0.130872E-03
  0.126296E-03  0.116884E-03  0.115908E-03  0.122228E-03  0.124689E-03  0.122228E-03
  0.115908E-03  0.116884E-03  0.126296E-03  0.130872E-03  0.126292E-03  0.116876E-03
  0.115897E-03  0.122213E-03  0.124674E-03  0.318589E-03  0.306195E-03  0.271203E-03
  0.233593E-03  0.201747E-03  0.162923E-03  0.116884E-03  0.678440E-04  0.278113E-04
  0.432724E-05 -0.411447E-05  0.432724E-05  0.278113E-04  0.678440E-04  0.116884E-03
  0.162923E-03  0.201747E-03  0.233593E-03  0.271203E-03  0.306195E-03  0.318589E-03
  0.444403E-03  0.427054E-03  0.378290E-03  0.321043E-03  0.266621E-03  0.198914E-03
  0.115908E-03  0.278113E-04 -0.481455E-04 -0.945155E-04 -0.109138E-03 -0.945155E-04
 -0.481455E-04  0.278113E-04  0.115908E-03  0.198914E-03  0.266621E-03  0.321043E-03
  0.378290E-03  0.427054E-03  0.444403E-03  0.513260E-03  0.494241E-03  0.443902E-03
  0.380367E-03  0.313183E-03  0.230179E-03  0.122228E-03  0.432724E-05 -0.945155E-04
 -0.152488E-03 -0.169599E-03 -0.152488E-03 -0.945155E-04  0.432724E-05  0.122228E-03
  0.230179E-03  0.313183E-03  0.380367E-03  0.443902E-03  0.494241E-03  0.513260E-03
  0.535176E-03  0.515424E-03  0.465854E-03  0.401772E-03  0.330287E-03  0.242113E-03
  0.124689E-03 -0.411447E-05 -0.109138E-03 -0.169599E-03 -0.187370E-03 -0.169599E-03
 -0.109138E-03 -0.411447E-05  0.124689E-03  0.242113E-03  0.330287E-03  0.401772E-03
  0.465854E-03  0.515424E-03  0.535176E-03  0.513260E-03  0.494241E-03  0.443902E-03
  0.380367E-03  0.313183E-03  0.230179E-03  0.122228E-03  0.432724E-05 -0.945155E-04
 -0.152488E-03 -0.169599E-03 -0.152488E-03 -0.945155E-04  0.432724E-05  0.122228E-03
  0.230179E-03  0.313183E-03  0.380367E-03  0.443902E-03  0.494241E-03  0.513260E-03
  0.444403E-03  0.427054E-03  0.378290E-03  0.321043E-03  0.266621E-03  0.198914E-03
  0.115908E-03  0.278113E-04 -0.481455E-04 -0.945155E-04 -0.109138E-03 -0.945155E-04
 -0.481455E-04  0.278113E-04  0.115908E-03  0.198914E-03  0.266621E-03  0.321043E-03
  0.378290E-03  0.427054E-03  0.444403E-03  0.318589E-03  0.306195E-03  0.271203E-03
  0.233593E-03  0.201747E-03  0.162923E-03  0.116884E-03  0.678440E-04  0.278113E-04
  0.432724E-05 -0.411447E-05  0.432724E-05  0.278113E-04  0.678440E-04  0.116884E-03
  0.162923E-03  0.201747E-03  0.233593E-03  0.271203E-03  0.306195E-03  0.318589E-03
  0.124674E-03  0.122213E-03  0.115897E-03  0.116876E-03  0.126292E-03  0.130872E-03
  0.126296E-03  0.116884E-03  0.115908E-03  0.122228E-03  0.124689E-03  0.122228E-03
  0.115908E-03  0.116884E-03  0.126296E-03  0.130872E-03  0.126292E-03  0.116876E-03