
     Program PWSCF v.7.5 starts on 25Jan2026 at 19:27:42 

     This program is part of the open-source Quantum ESPRESSO suite
     for quantum simulation of materials; please cite
         "P. Giannozzi et al., J. Phys.:Condens. Matter 21 395502 (2009);
         "P. Giannozzi et al., J. Phys.:Condens. Matter 29 465901 (2017);
         "P. Giannozzi et al., J. Chem. Phys. 152 154105 (2020);
          URL http://www.quantum-espresso.org", 
     in publications or presentations arising from this work. More details at
     http://www.quantum-espresso.org/quote

     Parallel version (MPI), running on     1 processors

     MPI processes distributed on     1 nodes
     0 MiB available memory on the printing compute node when the environment starts

     Waiting for input...
     Reading input from standard input
     Message from routine read_cards :
     DEPRECATED: no units specified in ATOMIC_POSITIONS card
     Message from routine read_cards :
     ATOMIC_POSITIONS: units set to alat

     Current dimensions of program PWSCF are:
     Max number of different atomic species (ntypx) = 10
     Max number of k-points (npk) =  40000
     Max angular momentum in pseudopotentials (lmaxx) =  4
     file Li.pbe-mt_fhi.UPF: wavefunction(s)  2p 4f renormalized

     Subspace diagonalization in iterative solution of the eigenvalue problem:
     a serial algorithm will be used


     G-vector sticks info
     --------------------
     sticks:   dense  smooth     PW     G-vecs:    dense   smooth      PW
     Sum         159     159     63                 1253     1253     321

     Using Slab Decomposition



     bravais-lattice index     =            3
     lattice parameter (alat)  =       6.6000  a.u.
     unit-cell volume          =     143.7480 (a.u.)^3
     number of atoms/cell      =            1
     number of atomic types    =            1
     number of electrons       =         1.00
     number of Kohn-Sham states=            5
     kinetic-energy cutoff     =      16.0000  Ry
     charge density cutoff     =      64.0000  Ry
     scf convergence threshold =      1.0E-08
     mixing beta               =       0.7000
     number of iterations used =            8  plain     mixing
     Exchange-correlation= PBE
                           (   1   4   3   4   0   0   0)

     celldm(1)=   6.600000  celldm(2)=   0.000000  celldm(3)=   0.000000
     celldm(4)=   0.000000  celldm(5)=   0.000000  celldm(6)=   0.000000

     crystal axes: (cart. coord. in units of alat)
               a(1) = (   0.500000   0.500000   0.500000 )  
               a(2) = (  -0.500000   0.500000   0.500000 )  
               a(3) = (  -0.500000  -0.500000   0.500000 )  

     reciprocal axes: (cart. coord. in units 2 pi/alat)
               b(1) = (  1.000000  0.000000  1.000000 )  
               b(2) = ( -1.000000  1.000000  0.000000 )  
               b(3) = (  0.000000 -1.000000  1.000000 )  


     PseudoPot. # 1 for Li read from file:
     ./pseudopot/Li.pbe-mt_fhi.UPF
     MD5 check sum: 3419f5616d131090147e867976aae79b
     Pseudo is Norm-conserving + core correction, Zval =  1.0
     Generated using FHI98PP, converted with fhi2upf.x v.5.0.2
     Using radial grid of  433 points,  3 beta functions with: 
                l(1) =   0
                l(2) =   1
                l(3) =   3

     atomic species   valence    mass     pseudopotential
     Li                1.00     6.94000     Li( 1.00)

     48 Sym. Ops., with inversion, found



   Cartesian axes

     site n.     atom                  positions (alat units)
         1        Li     tau(   1) = (   0.0000000   0.0000000   0.0000000  )

     number of k points=    68  Methfessel-Paxton smearing, width (Ry)=  0.0100
                       cart. coord. in units 2pi/alat
        k(    1) = (   0.0000000   0.0000000   0.0833333), wk =   0.0069444
        k(    2) = (   0.0000000  -0.0833333   0.1666667), wk =   0.0277778
        k(    3) = (   0.0000000  -0.1666667   0.2500000), wk =   0.0277778
        k(    4) = (   0.0000000  -0.2500000   0.3333333), wk =   0.0277778
        k(    5) = (   0.0000000  -0.3333333   0.4166667), wk =   0.0277778
        k(    6) = (   0.0000000  -0.4166667   0.5000000), wk =   0.0277778
        k(    7) = (  -0.0833333   0.0833333   0.0833333), wk =   0.0092593
        k(    8) = (  -0.0833333  -0.0833333   0.2500000), wk =   0.0277778
        k(    9) = (  -0.0833333  -0.1666667   0.3333333), wk =   0.0555556
        k(   10) = (  -0.0833333  -0.2500000   0.4166667), wk =   0.0555556
        k(   11) = (  -0.0833333  -0.3333333   0.5000000), wk =   0.0555556
        k(   12) = (  -0.0833333   0.5833333  -0.4166667), wk =   0.0277778
        k(   13) = (  -0.1666667   0.1666667   0.0833333), wk =   0.0277778
        k(   14) = (  -0.1666667  -0.1666667   0.4166667), wk =   0.0277778
        k(   15) = (  -0.1666667  -0.2500000   0.5000000), wk =   0.0555556
        k(   16) = (  -0.1666667   0.6666667  -0.4166667), wk =   0.0555556
        k(   17) = (  -0.2500000   0.2500000   0.0833333), wk =   0.0277778
        k(   18) = (  -0.2500000   0.1666667   0.1666667), wk =   0.0277778
        k(   19) = (  -0.2500000   0.7500000  -0.4166667), wk =   0.0277778
        k(   20) = (  -0.2500000   0.6666667  -0.3333333), wk =   0.0277778
        k(   21) = (  -0.3333333   0.3333333   0.0833333), wk =   0.0277778
        k(   22) = (  -0.3333333   0.2500000   0.1666667), wk =   0.0555556
        k(   23) = (  -0.4166667   0.4166667   0.0833333), wk =   0.0277778
        k(   24) = (  -0.4166667   0.3333333   0.1666667), wk =   0.0555556
        k(   25) = (  -0.4166667   0.2500000   0.2500000), wk =   0.0277778
        k(   26) = (   0.5000000  -0.5000000   0.0833333), wk =   0.0138889
        k(   27) = (   0.5000000  -0.5833333   0.1666667), wk =   0.0555556
        k(   28) = (   0.5000000  -0.6666667   0.2500000), wk =   0.0555556
        k(   29) = (   0.4166667  -0.5833333   0.2500000), wk =   0.0277778
        k(   30) = (   0.4166667  -0.6666667   0.3333333), wk =   0.0277778
        k(   31) = (   0.0000000   0.0000000   0.2500000), wk =   0.0069444
        k(   32) = (   0.0000000  -0.0833333   0.3333333), wk =   0.0277778
        k(   33) = (   0.0000000  -0.1666667   0.4166667), wk =   0.0277778
        k(   34) = (   0.0000000  -0.2500000   0.5000000), wk =   0.0277778
        k(   35) = (   0.0000000  -0.3333333   0.5833333), wk =   0.0277778
        k(   36) = (  -0.0833333  -0.0833333   0.4166667), wk =   0.0277778
        k(   37) = (  -0.0833333  -0.1666667   0.5000000), wk =   0.0555556
        k(   38) = (  -0.0833333  -0.2500000   0.5833333), wk =   0.0555556
        k(   39) = (  -0.0833333   0.6666667  -0.3333333), wk =   0.0277778
        k(   40) = (  -0.1666667  -0.1666667   0.5833333), wk =   0.0277778
        k(   41) = (  -0.1666667   0.7500000  -0.3333333), wk =   0.0555556
        k(   42) = (  -0.2500000   0.2500000   0.2500000), wk =   0.0092593
        k(   43) = (  -0.2500000   0.7500000  -0.2500000), wk =   0.0092593
        k(   44) = (  -0.3333333   0.3333333   0.2500000), wk =   0.0277778
        k(   45) = (   0.5833333  -0.5833333   0.2500000), wk =   0.0277778
        k(   46) = (   0.5833333  -0.6666667   0.3333333), wk =   0.0277778
        k(   47) = (   0.5000000  -0.5000000   0.2500000), wk =   0.0138889
        k(   48) = (   0.5000000  -0.5833333   0.3333333), wk =   0.0555556
        k(   49) = (   0.4166667  -0.5833333   0.4166667), wk =   0.0092593
        k(   50) = (   0.0000000   0.0000000   0.4166667), wk =   0.0069444
        k(   51) = (   0.0000000  -0.0833333   0.5000000), wk =   0.0277778
        k(   52) = (   0.0000000  -0.1666667   0.5833333), wk =   0.0277778
        k(   53) = (   0.0000000  -0.2500000   0.6666667), wk =   0.0277778
        k(   54) = (  -0.0833333  -0.0833333   0.5833333), wk =   0.0277778
        k(   55) = (  -0.0833333  -0.1666667   0.6666667), wk =   0.0555556
        k(   56) = (  -0.0833333   0.7500000  -0.2500000), wk =   0.0277778
        k(   57) = (  -0.1666667   0.8333333  -0.2500000), wk =   0.0277778
        k(   58) = (   0.5833333  -0.5833333   0.4166667), wk =   0.0092593
        k(   59) = (   0.5000000  -0.5000000   0.4166667), wk =   0.0138889
        k(   60) = (   0.0000000   0.0000000   0.5833333), wk =   0.0069444
        k(   61) = (   0.0000000  -0.0833333   0.6666667), wk =   0.0277778
        k(   62) = (   0.0000000  -0.1666667   0.7500000), wk =   0.0277778
        k(   63) = (  -0.0833333  -0.0833333   0.7500000), wk =   0.0277778
        k(   64) = (  -0.0833333   0.8333333  -0.1666667), wk =   0.0277778
        k(   65) = (   0.0000000   0.0000000   0.7500000), wk =   0.0069444
        k(   66) = (   0.0000000  -0.0833333   0.8333333), wk =   0.0277778
        k(   67) = (  -0.0833333   0.9166667  -0.0833333), wk =   0.0092593
        k(   68) = (   0.0000000   0.0000000   0.9166667), wk =   0.0069444

     Dense  grid:     1253 G-vectors     FFT dimensions: (  15,  15,  15)

     Estimated max dynamical RAM per process >       1.91 MB

     Initial potential from superposition of free atoms

     starting charge       0.9960, renormalised to       1.0000
     Starting wfcs are   16 randomized atomic wfcs

     total cpu time spent up to now is        0.1 secs

     Self-consistent Calculation

     iteration #  1     ecut=    16.00 Ry     beta= 0.70
     Davidson diagonalization with overlap
     ethr =  1.00E-02,  avg # of iterations =  4.6

     Threshold (ethr) on eigenvalues was too large:
     Diagonalizing with lowered threshold

     Davidson diagonalization with overlap
     ethr =  1.91E-05,  avg # of iterations =  3.8

     total cpu time spent up to now is        0.3 secs

     total energy              =      -0.69432078 Ry
     estimated scf accuracy    <       0.00018963 Ry

     iteration #  2     ecut=    16.00 Ry     beta= 0.70
     Davidson diagonalization with overlap
     ethr =  1.90E-05,  avg # of iterations =  1.0

     total cpu time spent up to now is        0.3 secs

     total energy              =      -0.69432031 Ry
     estimated scf accuracy    <       0.00001706 Ry

     iteration #  3     ecut=    16.00 Ry     beta= 0.70
     Davidson diagonalization with overlap
     ethr =  1.71E-06,  avg # of iterations =  1.4

     total cpu time spent up to now is        0.4 secs

     End of self-consistent calculation

          k = 0.0000 0.0000 0.0833 (   149 PWs)   bands (ev):

    -3.0910  14.0793  14.0793  14.2500  18.2928

          k = 0.0000-0.0833 0.1667 (   155 PWs)   bands (ev):

    -2.8294  12.5076  13.0839  13.8703  16.6670

          k = 0.0000-0.1667 0.2500 (   157 PWs)   bands (ev):

    -2.3066  10.0283  11.9822  13.2435  15.9922

          k = 0.0000-0.2500 0.3333 (   158 PWs)   bands (ev):

    -1.5297   7.5416  11.0789  12.5871  14.9894

          k = 0.0000-0.3333 0.4167 (   156 PWs)   bands (ev):

    -0.5339   5.3532  10.4568  12.0840  14.3159

          k = 0.0000-0.4167 0.5000 (   154 PWs)   bands (ev):

     0.4657   3.7463  10.1422  11.8189  13.9784

          k =-0.0833 0.0833 0.0833 (   153 PWs)   bands (ev):

    -2.9604  13.3061  13.6946  13.6946  17.4237

          k =-0.0833-0.0833 0.2500 (   153 PWs)   bands (ev):

    -2.4361  11.1873  11.4598  13.3123  15.8244

          k =-0.0833-0.1667 0.3333 (   159 PWs)   bands (ev):

    -1.7830   8.8021  10.3900  12.6356  15.6302

          k =-0.0833-0.2500 0.4167 (   159 PWs)   bands (ev):

    -0.8834   6.4704   9.6473  12.0169  15.5481

          k =-0.0833-0.3333 0.5000 (   156 PWs)   bands (ev):

     0.1847   4.5114   9.1939  11.6084  15.3069

          k =-0.0833 0.5833-0.4167 (   158 PWs)   bands (ev):

     0.8833   3.5113   9.0406  11.4664  15.1998

          k =-0.1667 0.1667 0.0833 (   157 PWs)   bands (ev):

    -2.5684  11.3457  12.3678  12.8291  16.7973

          k =-0.1667-0.1667 0.4167 (   159 PWs)   bands (ev):

    -1.0003   7.3473   8.6972  12.0915  15.6246

          k =-0.1667-0.2500 0.5000 (   156 PWs)   bands (ev):

     0.0170   5.4502   7.8736  11.6566  15.8832

          k =-0.1667 0.6667-0.4167 (   156 PWs)   bands (ev):

     1.0962   3.8413   7.5291  11.4143  16.0324

          k =-0.2500 0.2500 0.0833 (   157 PWs)   bands (ev):

    -1.9171   8.7787  11.4317  11.9285  16.1172

          k =-0.2500 0.1667 0.1667 (   159 PWs)   bands (ev):

    -2.0462   9.9337  10.5466  11.6531  17.2008

          k =-0.2500 0.7500-0.4167 (   154 PWs)   bands (ev):

     1.1371   4.2278   6.7407  11.4230  16.5227

          k =-0.2500 0.6667-0.3333 (   154 PWs)   bands (ev):

     2.0577   3.2185   6.4072  11.3399  16.9491

          k =-0.3333 0.3333 0.0833 (   158 PWs)   bands (ev):

    -1.0215   6.4096  10.7271  11.2119  15.4794

          k =-0.3333 0.2500 0.1667 (   159 PWs)   bands (ev):

    -1.2671   7.6176   9.5331  10.9007  17.2169

          k =-0.4167 0.4167 0.0833 (   155 PWs)   bands (ev):

     0.0354   4.4455  10.2966  10.7639  15.0549

          k =-0.4167 0.3333 0.1667 (   160 PWs)   bands (ev):

    -0.2593   5.4424   8.9228  10.3794  16.9797

          k =-0.4167 0.2500 0.2500 (   160 PWs)   bands (ev):

    -0.3620   6.2273   7.8741  10.3593  18.0778

          k = 0.5000-0.5000 0.0833 (   154 PWs)   bands (ev):

     0.7161   3.4594  10.1500  10.6123  14.9088

          k = 0.5000-0.5833 0.1667 (   157 PWs)   bands (ev):

     0.7827   3.8019   8.6183  10.1163  16.8034

          k = 0.5000-0.6667 0.2500 (   155 PWs)   bands (ev):

     0.7470   4.5181   7.1484  10.0290  18.1826

          k = 0.4167-0.5833 0.2500 (   158 PWs)   bands (ev):

     1.5577   3.4605   6.9463   9.9172  18.1770

          k = 0.4167-0.6667 0.3333 (   155 PWs)   bands (ev):

     1.9330   3.4033   6.2078   9.8500  19.3238

          k = 0.0000 0.0000 0.2500 (   156 PWs)   bands (ev):

    -2.5660  11.9841  11.9841  13.4089  14.8757

          k = 0.0000-0.0833 0.3333 (   159 PWs)   bands (ev):

    -2.0398  10.0542  10.8223  12.9848  14.1143

          k = 0.0000-0.1667 0.4167 (   159 PWs)   bands (ev):

    -1.2566   7.6797   9.8933  12.4108  14.4305

          k = 0.0000-0.2500 0.5000 (   154 PWs)   bands (ev):

    -0.2468   5.5147   9.2571  11.9510  15.1010

          k = 0.0000-0.3333 0.5833 (   158 PWs)   bands (ev):

     0.7849   3.8870   8.9340  11.7075  15.7334

          k =-0.0833-0.0833 0.4167 (   157 PWs)   bands (ev):

    -1.3805   8.6924   9.3362  12.7901  13.3904

          k =-0.0833-0.1667 0.5000 (   157 PWs)   bands (ev):

    -0.4688   6.6363   8.4497  12.3728  13.7796

          k =-0.0833-0.2500 0.5833 (   155 PWs)   bands (ev):

     0.6290   4.7165   7.9731  12.0143  14.5621

          k =-0.0833 0.6667-0.3333 (   158 PWs)   bands (ev):

     1.3836   3.6765   7.8155  11.8883  15.0245

          k =-0.1667-0.1667 0.5833 (   153 PWs)   bands (ev):

     0.5623   5.3627   7.1902  12.5433  13.7742

          k =-0.1667 0.7500-0.3333 (   150 PWs)   bands (ev):

     1.7095   3.9202   6.6781  12.4506  14.4980

          k =-0.2500 0.2500 0.2500 (   159 PWs)   bands (ev):

    -1.3951   8.8549   8.8549  10.1741  18.2372

          k =-0.2500 0.7500-0.2500 (   146 PWs)   bands (ev):

     2.8867   2.8867   6.1692  12.6444  15.2759

          k =-0.3333 0.3333 0.2500 (   156 PWs)   bands (ev):

    -0.4893   6.5970   8.0590   9.5717  18.9785

          k = 0.5833-0.5833 0.2500 (   155 PWs)   bands (ev):

     0.6117   4.6230   7.5747   9.2387  18.9337

          k = 0.5833-0.6667 0.3333 (   156 PWs)   bands (ev):

     0.5372   5.4111   6.5893   9.0604  19.8764

          k = 0.5000-0.5000 0.2500 (   160 PWs)   bands (ev):

     1.3900   3.5467   7.4120   9.1280  18.9318

          k = 0.5000-0.5833 0.3333 (   153 PWs)   bands (ev):

     1.7038   3.8931   6.0695   8.8435  20.3519

          k = 0.4167-0.5833 0.4167 (   152 PWs)   bands (ev):

     2.9051   2.9051   5.4455   8.7336  20.9849

          k = 0.0000 0.0000 0.4167 (   160 PWs)   bands (ev):

    -1.5066   9.6350   9.6350  12.1388  12.6677

          k = 0.0000-0.0833 0.5000 (   159 PWs)   bands (ev):

    -0.7112   7.9002   8.6901  11.6312  12.6269

          k = 0.0000-0.1667 0.5833 (   154 PWs)   bands (ev):

     0.3229   5.8460   8.0461  11.4603  13.2562

          k = 0.0000-0.2500 0.6667 (   152 PWs)   bands (ev):

     1.4197   4.1919   7.7234  11.3324  14.2968

          k =-0.0833-0.0833 0.5833 (   153 PWs)   bands (ev):

     0.2184   6.7387   7.5713  11.4158  12.4774

          k =-0.0833-0.1667 0.6667 (   151 PWs)   bands (ev):

     1.3580   5.0603   6.9825  11.5731  12.9678

          k =-0.0833 0.7500-0.2500 (   154 PWs)   bands (ev):

     2.2130   3.9714   6.8105  11.5755  13.9357

          k =-0.1667 0.8333-0.2500 (   147 PWs)   bands (ev):

     2.5683   4.0281   6.1938  12.4712  12.8946

          k = 0.5833-0.5833 0.4167 (   150 PWs)   bands (ev):

     1.6864   4.9176   4.9176   8.5156  21.6084

          k = 0.5000-0.5000 0.4167 (   152 PWs)   bands (ev):

     2.7386   3.6465   4.7522   8.3705  22.1154

          k = 0.0000 0.0000 0.5833 (   152 PWs)   bands (ev):

     0.1046   7.7389   7.7389  10.0856  12.2590

          k = 0.0000-0.0833 0.6667 (   151 PWs)   bands (ev):

     1.1682   6.3071   7.0920  10.0177  12.2558

          k = 0.0000-0.1667 0.7500 (   154 PWs)   bands (ev):

     2.3527   4.6885   6.7630  10.3835  12.7529

          k =-0.0833-0.0833 0.7500 (   151 PWs)   bands (ev):

     2.3482   5.4171   6.3498  10.0777  12.0328

          k =-0.0833 0.8333-0.1667 (   150 PWs)   bands (ev):

     3.3574   4.3778   6.1055  10.5386  11.8096

          k = 0.0000 0.0000 0.7500 (   156 PWs)   bands (ev):

     2.2698   6.4414   6.4414   8.7165  11.6308

          k = 0.0000-0.0833 0.8333 (   151 PWs)   bands (ev):

     3.5446   5.3599   6.1148   8.9897  10.7213

          k =-0.0833 0.9167-0.0833 (   155 PWs)   bands (ev):

     4.7510   4.7510   5.7872   9.4046   9.4046

          k = 0.0000 0.0000 0.9167 (   160 PWs)   bands (ev):

     4.8672   5.7856   5.7856   8.0320   8.8950

     the Fermi energy is     0.4431 ev

!    total energy              =      -0.69432041 Ry
     estimated scf accuracy    <          1.2E-09 Ry
     smearing contrib. (-TS)   =       0.00006820 Ry
     internal energy E=F+TS    =      -0.69438861 Ry

     The total energy is F=E-TS. E is the sum of the following terms:
     one-electron contribution =       0.39818065 Ry
     hartree contribution      =       0.00097086 Ry
     xc contribution           =      -0.54214104 Ry
     ewald contribution        =      -0.55139908 Ry

     convergence has been achieved in   3 iterations

     Forces acting on atoms (cartesian axes, Ry/au):

     atom    1 type  1   force =     0.00000000    0.00000000    0.00000000

     Total force =     0.000000     Total SCF correction =     0.000000


     Computing stress (Cartesian axis) and pressure

          total   stress  (Ry/bohr**3)                   (kbar)     P=       -9.63
  -0.00006543   0.00000000  -0.00000000           -9.63        0.00       -0.00
   0.00000000  -0.00006543   0.00000000            0.00       -9.63        0.00
  -0.00000000   0.00000000  -0.00006543           -0.00        0.00       -9.63


     Writing all to output data dir ./QE-outdir/li.save/ :
     XML data file, charge density, pseudopotentials, collected wavefunctions

     init_run     :      0.05s CPU      0.07s WALL (       1 calls)
     electrons    :      0.19s CPU      0.32s WALL (       1 calls)
     forces       :      0.00s CPU      0.00s WALL (       1 calls)
     stress       :      0.03s CPU      0.03s WALL (       1 calls)

     Called by init_run:
     wfcinit      :      0.04s CPU      0.06s WALL (       1 calls)
     potinit      :      0.00s CPU      0.00s WALL (       1 calls)
     hinit0       :      0.01s CPU      0.01s WALL (       1 calls)

     Called by electrons:
     c_bands      :      0.17s CPU      0.31s WALL (       4 calls)
     sum_band     :      0.02s CPU      0.02s WALL (       4 calls)
     v_of_rho     :      0.00s CPU      0.00s WALL (       4 calls)
     mix_rho      :      0.00s CPU      0.00s WALL (       4 calls)

     Called by c_bands:
     init_us_2    :      0.01s CPU      0.01s WALL (     748 calls)
     cegterg      :      0.16s CPU      0.30s WALL (     272 calls)

     Called by *egterg:
     cdiaghg      :      0.11s CPU      0.25s WALL (     932 calls)
     h_psi        :      0.08s CPU      0.09s WALL (    1068 calls)
     g_psi        :      0.00s CPU      0.00s WALL (     728 calls)

     Called by h_psi:
     h_psi:calbec :      0.00s CPU      0.00s WALL (    1068 calls)
     vloc_psi     :      0.07s CPU      0.08s WALL (    1068 calls)
                                        0.00s GPU  (    1068 calls)
     add_vuspsi   :      0.00s CPU      0.00s WALL (    1068 calls)

     General routines
     calbec       :      0.01s CPU      0.01s WALL (    2224 calls)
     fft          :      0.00s CPU      0.00s WALL (      65 calls)
     ffts         :      0.00s CPU      0.00s WALL (       4 calls)
     fftw         :      0.07s CPU      0.07s WALL (   11308 calls)

     Parallel routines

     PWSCF        :      0.28s CPU      0.45s WALL


   This run was terminated on:  19:27:43  25Jan2026            

=------------------------------------------------------------------------------=
   JOB DONE.
=------------------------------------------------------------------------------=
