
     Program PWSCF v.7.5 starts on 26Jan2026 at 14: 1: 6 

     This program is part of the open-source Quantum ESPRESSO suite
     for quantum simulation of materials; please cite
         "P. Giannozzi et al., J. Phys.:Condens. Matter 21 395502 (2009);
         "P. Giannozzi et al., J. Phys.:Condens. Matter 29 465901 (2017);
         "P. Giannozzi et al., J. Chem. Phys. 152 154105 (2020);
          URL http://www.quantum-espresso.org", 
     in publications or presentations arising from this work. More details at
     http://www.quantum-espresso.org/quote

     Parallel version (MPI), running on     1 processors

     MPI processes distributed on     1 nodes
     0 MiB available memory on the printing compute node when the environment starts

     Waiting for input...
     Reading input from standard input
     Message from routine read_cards :
     DEPRECATED: no units specified in ATOMIC_POSITIONS card
     Message from routine read_cards :
     ATOMIC_POSITIONS: units set to alat

     Current dimensions of program PWSCF are:
     Max number of different atomic species (ntypx) = 10
     Max number of k-points (npk) =  40000
     Max angular momentum in pseudopotentials (lmaxx) =  4
     file Li.pbe-mt_fhi.UPF: wavefunction(s)  2p 4f renormalized

     Subspace diagonalization in iterative solution of the eigenvalue problem:
     a serial algorithm will be used


     G-vector sticks info
     --------------------
     sticks:   dense  smooth     PW     G-vecs:    dense   smooth      PW
     Sum         201     201     69                 1745     1745     381

     Using Slab Decomposition



     bravais-lattice index     =            3
     lattice parameter (alat)  =       6.6000  a.u.
     unit-cell volume          =     143.7480 (a.u.)^3
     number of atoms/cell      =            1
     number of atomic types    =            1
     number of electrons       =         1.00
     number of Kohn-Sham states=            5
     kinetic-energy cutoff     =      20.0000  Ry
     charge density cutoff     =      80.0000  Ry
     scf convergence threshold =      1.0E-08
     mixing beta               =       0.7000
     number of iterations used =            8  plain     mixing
     Exchange-correlation= PBE
                           (   1   4   3   4   0   0   0)

     celldm(1)=   6.600000  celldm(2)=   0.000000  celldm(3)=   0.000000
     celldm(4)=   0.000000  celldm(5)=   0.000000  celldm(6)=   0.000000

     crystal axes: (cart. coord. in units of alat)
               a(1) = (   0.500000   0.500000   0.500000 )  
               a(2) = (  -0.500000   0.500000   0.500000 )  
               a(3) = (  -0.500000  -0.500000   0.500000 )  

     reciprocal axes: (cart. coord. in units 2 pi/alat)
               b(1) = (  1.000000  0.000000  1.000000 )  
               b(2) = ( -1.000000  1.000000  0.000000 )  
               b(3) = (  0.000000 -1.000000  1.000000 )  


     PseudoPot. # 1 for Li read from file:
     ./pseudopot/Li.pbe-mt_fhi.UPF
     MD5 check sum: 3419f5616d131090147e867976aae79b
     Pseudo is Norm-conserving + core correction, Zval =  1.0
     Generated using FHI98PP, converted with fhi2upf.x v.5.0.2
     Using radial grid of  433 points,  3 beta functions with: 
                l(1) =   0
                l(2) =   1
                l(3) =   3

     atomic species   valence    mass     pseudopotential
     Li                1.00     6.94000     Li( 1.00)

     48 Sym. Ops., with inversion, found



   Cartesian axes

     site n.     atom                  positions (alat units)
         1        Li     tau(   1) = (   0.0000000   0.0000000   0.0000000  )

     number of k points=    26  Methfessel-Paxton smearing, width (Ry)=  0.0100
                       cart. coord. in units 2pi/alat
        k(    1) = (   0.0000000   0.0000000   0.1250000), wk =   0.0234375
        k(    2) = (   0.0000000  -0.1250000   0.2500000), wk =   0.0937500
        k(    3) = (   0.0000000  -0.2500000   0.3750000), wk =   0.0937500
        k(    4) = (   0.0000000  -0.3750000   0.5000000), wk =   0.0937500
        k(    5) = (  -0.1250000   0.1250000   0.1250000), wk =   0.0312500
        k(    6) = (  -0.1250000  -0.1250000   0.3750000), wk =   0.0937500
        k(    7) = (  -0.1250000  -0.2500000   0.5000000), wk =   0.1875000
        k(    8) = (  -0.1250000   0.6250000  -0.3750000), wk =   0.0937500
        k(    9) = (  -0.2500000   0.2500000   0.1250000), wk =   0.0937500
        k(   10) = (  -0.2500000   0.7500000  -0.3750000), wk =   0.0937500
        k(   11) = (  -0.3750000   0.3750000   0.1250000), wk =   0.0937500
        k(   12) = (  -0.3750000   0.2500000   0.2500000), wk =   0.0937500
        k(   13) = (   0.5000000  -0.5000000   0.1250000), wk =   0.0468750
        k(   14) = (   0.5000000  -0.6250000   0.2500000), wk =   0.1875000
        k(   15) = (   0.3750000  -0.6250000   0.3750000), wk =   0.0312500
        k(   16) = (   0.0000000   0.0000000   0.3750000), wk =   0.0234375
        k(   17) = (   0.0000000  -0.1250000   0.5000000), wk =   0.0937500
        k(   18) = (   0.0000000  -0.2500000   0.6250000), wk =   0.0937500
        k(   19) = (  -0.1250000  -0.1250000   0.6250000), wk =   0.0937500
        k(   20) = (  -0.1250000   0.7500000  -0.2500000), wk =   0.0937500
        k(   21) = (   0.6250000  -0.6250000   0.3750000), wk =   0.0312500
        k(   22) = (   0.5000000  -0.5000000   0.3750000), wk =   0.0468750
        k(   23) = (   0.0000000   0.0000000   0.6250000), wk =   0.0234375
        k(   24) = (   0.0000000  -0.1250000   0.7500000), wk =   0.0937500
        k(   25) = (  -0.1250000   0.8750000  -0.1250000), wk =   0.0312500
        k(   26) = (   0.0000000   0.0000000   0.8750000), wk =   0.0234375

     Dense  grid:     1745 G-vectors     FFT dimensions: (  18,  18,  18)

     Estimated max dynamical RAM per process >       1.97 MB

     Initial potential from superposition of free atoms

     starting charge       0.9960, renormalised to       1.0000
     Starting wfcs are   16 randomized atomic wfcs

     total cpu time spent up to now is        0.1 secs

     Self-consistent Calculation

     iteration #  1     ecut=    20.00 Ry     beta= 0.70
     Davidson diagonalization with overlap
     ethr =  1.00E-02,  avg # of iterations =  4.2

     Threshold (ethr) on eigenvalues was too large:
     Diagonalizing with lowered threshold

     Davidson diagonalization with overlap
     ethr =  1.87E-05,  avg # of iterations =  3.7

     total cpu time spent up to now is        0.2 secs

     total energy              =      -0.69546808 Ry
     estimated scf accuracy    <       0.00018702 Ry

     iteration #  2     ecut=    20.00 Ry     beta= 0.70
     Davidson diagonalization with overlap
     ethr =  1.87E-05,  avg # of iterations =  1.0

     total cpu time spent up to now is        0.2 secs

     total energy              =      -0.69546766 Ry
     estimated scf accuracy    <       0.00001689 Ry

     iteration #  3     ecut=    20.00 Ry     beta= 0.70
     Davidson diagonalization with overlap
     ethr =  1.69E-06,  avg # of iterations =  1.4

     total cpu time spent up to now is        0.2 secs

     End of self-consistent calculation

          k = 0.0000 0.0000 0.1250 (   213 PWs)   bands (ev):

    -3.0109  13.6476  13.6477  14.0523  17.3742

          k = 0.0000-0.1250 0.2500 (   211 PWs)   bands (ev):

    -2.4217  10.6636  11.9867  13.3445  15.8159

          k = 0.0000-0.2500 0.3750 (   215 PWs)   bands (ev):

    -1.2571   6.9781  10.6267  12.4084  15.1449

          k = 0.0000-0.3750 0.5000 (   215 PWs)   bands (ev):

     0.2944   4.0773   9.9179  11.8368  14.3927

          k =-0.1250 0.1250 0.1250 (   216 PWs)   bands (ev):

    -2.7170  12.4209  12.6463  12.6463  17.1105

          k =-0.1250-0.1250 0.3750 (   211 PWs)   bands (ev):

    -1.5368   8.5845   9.5047  12.6439  14.9992

          k =-0.1250-0.2500 0.5000 (   216 PWs)   bands (ev):

    -0.1006   5.4913   8.3053  11.9365  15.3345

          k =-0.1250 0.6250-0.3750 (   219 PWs)   bands (ev):

     1.1927   3.5572   7.9536  11.6466  15.5270

          k =-0.2500 0.2500 0.1250 (   212 PWs)   bands (ev):

    -1.8370   8.8103  11.1073  11.1462  16.8099

          k =-0.2500 0.7500-0.3750 (   219 PWs)   bands (ev):

     1.5638   3.8242   6.5234  11.7262  16.1518

          k =-0.3750 0.3750 0.1250 (   213 PWs)   bands (ev):

    -0.4171   5.3907  10.1291  10.2218  16.1647

          k =-0.3750 0.2500 0.2500 (   219 PWs)   bands (ev):

    -0.6692   6.8225   8.1860  10.1713  18.3383

          k = 0.5000-0.5000 0.1250 (   216 PWs)   bands (ev):

     0.8169   3.4725   9.7791   9.9165  15.8812

          k = 0.5000-0.6250 0.2500 (   214 PWs)   bands (ev):

     0.9634   4.1639   7.2056   9.6736  18.4236

          k = 0.3750-0.6250 0.3750 (   213 PWs)   bands (ev):

     2.7086   2.7086   5.9433   9.4855  19.8775

          k = 0.0000 0.0000 0.3750 (   213 PWs)   bands (ev):

    -1.8239  10.1805  10.1805  12.7579  12.8114

          k = 0.0000-0.1250 0.5000 (   220 PWs)   bands (ev):

    -0.6377   7.2971   8.7713  11.8874  13.0476

          k = 0.0000-0.2500 0.6250 (   217 PWs)   bands (ev):

     0.9861   4.4268   8.0456  11.4920  14.4282

          k =-0.1250-0.1250 0.6250 (   223 PWs)   bands (ev):

     0.8351   5.6301   7.0529  12.1376  12.6008

          k =-0.1250 0.7500-0.2500 (   219 PWs)   bands (ev):

     2.3132   3.8219   6.5263  12.1688  13.8356

          k = 0.6250-0.6250 0.3750 (   228 PWs)   bands (ev):

     0.7806   5.7228   5.7228   8.7837  20.6398

          k = 0.5000-0.5000 0.3750 (   220 PWs)   bands (ev):

     2.3342   3.6226   5.3531   8.4942  21.4501

          k = 0.0000 0.0000 0.6250 (   221 PWs)   bands (ev):

     0.5908   7.3460   7.3460   9.6782  12.1685

          k = 0.0000-0.1250 0.7500 (   220 PWs)   bands (ev):

     2.3332   5.1938   6.6147   9.9485  12.2001

          k =-0.1250 0.8750-0.1250 (   224 PWs)   bands (ev):

     4.1310   4.1310   5.8670  10.6442  10.6442

          k = 0.0000 0.0000 0.8750 (   236 PWs)   bands (ev):

     4.2033   5.8808   5.8808   8.1380   9.6655

     the Fermi energy is     0.3548 ev

!    total energy              =      -0.69546776 Ry
     estimated scf accuracy    <          1.2E-09 Ry
     smearing contrib. (-TS)   =      -0.00005752 Ry
     internal energy E=F+TS    =      -0.69541024 Ry

     The total energy is F=E-TS. E is the sum of the following terms:
     one-electron contribution =       0.39724347 Ry
     hartree contribution      =       0.00096469 Ry
     xc contribution           =      -0.54221936 Ry
     ewald contribution        =      -0.55139904 Ry

     convergence has been achieved in   3 iterations

     Forces acting on atoms (cartesian axes, Ry/au):

     atom    1 type  1   force =     0.00000000    0.00000000    0.00000000

     Total force =     0.000000     Total SCF correction =     0.000000


     Computing stress (Cartesian axis) and pressure

          total   stress  (Ry/bohr**3)                   (kbar)     P=      -10.28
  -0.00006991   0.00000000  -0.00000000          -10.28        0.00       -0.00
   0.00000000  -0.00006991   0.00000000            0.00      -10.28        0.00
  -0.00000000   0.00000000  -0.00006991           -0.00        0.00      -10.28


     Writing all to output data dir ./QE-outdir/li.save/ :
     XML data file, charge density, pseudopotentials, collected wavefunctions

     init_run     :      0.04s CPU      0.05s WALL (       1 calls)
     electrons    :      0.13s CPU      0.19s WALL (       1 calls)
     forces       :      0.00s CPU      0.00s WALL (       1 calls)
     stress       :      0.02s CPU      0.02s WALL (       1 calls)

     Called by init_run:
     wfcinit      :      0.03s CPU      0.04s WALL (       1 calls)
     potinit      :      0.00s CPU      0.00s WALL (       1 calls)
     hinit0       :      0.01s CPU      0.01s WALL (       1 calls)

     Called by electrons:
     c_bands      :      0.11s CPU      0.17s WALL (       4 calls)
     sum_band     :      0.01s CPU      0.01s WALL (       4 calls)
     v_of_rho     :      0.00s CPU      0.00s WALL (       4 calls)
     mix_rho      :      0.00s CPU      0.00s WALL (       4 calls)

     Called by c_bands:
     init_us_2    :      0.01s CPU      0.01s WALL (     286 calls)
     cegterg      :      0.11s CPU      0.17s WALL (     104 calls)

     Called by *egterg:
     cdiaghg      :      0.04s CPU      0.10s WALL (     348 calls)
     h_psi        :      0.09s CPU      0.09s WALL (     400 calls)
     g_psi        :      0.00s CPU      0.00s WALL (     270 calls)

     Called by h_psi:
     h_psi:calbec :      0.00s CPU      0.00s WALL (     400 calls)
     vloc_psi     :      0.08s CPU      0.08s WALL (     400 calls)
                                        0.00s GPU  (     400 calls)
     add_vuspsi   :      0.00s CPU      0.00s WALL (     400 calls)

     General routines
     calbec       :      0.00s CPU      0.00s WALL (     842 calls)
     fft          :      0.00s CPU      0.00s WALL (      65 calls)
     ffts         :      0.00s CPU      0.00s WALL (       4 calls)
     fftw         :      0.08s CPU      0.09s WALL (    4316 calls)

     Parallel routines

     PWSCF        :      0.20s CPU      0.28s WALL


   This run was terminated on:  14: 1: 7  26Jan2026            

=------------------------------------------------------------------------------=
   JOB DONE.
=------------------------------------------------------------------------------=
