
     Program PWSCF v.7.5 starts on 25Jan2026 at 19:27:42 

     This program is part of the open-source Quantum ESPRESSO suite
     for quantum simulation of materials; please cite
         "P. Giannozzi et al., J. Phys.:Condens. Matter 21 395502 (2009);
         "P. Giannozzi et al., J. Phys.:Condens. Matter 29 465901 (2017);
         "P. Giannozzi et al., J. Chem. Phys. 152 154105 (2020);
          URL http://www.quantum-espresso.org", 
     in publications or presentations arising from this work. More details at
     http://www.quantum-espresso.org/quote

     Parallel version (MPI), running on     1 processors

     MPI processes distributed on     1 nodes
     0 MiB available memory on the printing compute node when the environment starts

     Waiting for input...
     Reading input from standard input
     Message from routine read_cards :
     DEPRECATED: no units specified in ATOMIC_POSITIONS card
     Message from routine read_cards :
     ATOMIC_POSITIONS: units set to alat

     Current dimensions of program PWSCF are:
     Max number of different atomic species (ntypx) = 10
     Max number of k-points (npk) =  40000
     Max angular momentum in pseudopotentials (lmaxx) =  4
     file Li.pbe-mt_fhi.UPF: wavefunction(s)  2p 4f renormalized

     Subspace diagonalization in iterative solution of the eigenvalue problem:
     a serial algorithm will be used


     G-vector sticks info
     --------------------
     sticks:   dense  smooth     PW     G-vecs:    dense   smooth      PW
     Sum         159     159     63                 1253     1253     321

     Using Slab Decomposition



     bravais-lattice index     =            3
     lattice parameter (alat)  =       6.6000  a.u.
     unit-cell volume          =     143.7480 (a.u.)^3
     number of atoms/cell      =            1
     number of atomic types    =            1
     number of electrons       =         1.00
     number of Kohn-Sham states=            5
     kinetic-energy cutoff     =      16.0000  Ry
     charge density cutoff     =      64.0000  Ry
     scf convergence threshold =      1.0E-08
     mixing beta               =       0.7000
     number of iterations used =            8  plain     mixing
     Exchange-correlation= PBE
                           (   1   4   3   4   0   0   0)

     celldm(1)=   6.600000  celldm(2)=   0.000000  celldm(3)=   0.000000
     celldm(4)=   0.000000  celldm(5)=   0.000000  celldm(6)=   0.000000

     crystal axes: (cart. coord. in units of alat)
               a(1) = (   0.500000   0.500000   0.500000 )  
               a(2) = (  -0.500000   0.500000   0.500000 )  
               a(3) = (  -0.500000  -0.500000   0.500000 )  

     reciprocal axes: (cart. coord. in units 2 pi/alat)
               b(1) = (  1.000000  0.000000  1.000000 )  
               b(2) = ( -1.000000  1.000000  0.000000 )  
               b(3) = (  0.000000 -1.000000  1.000000 )  


     PseudoPot. # 1 for Li read from file:
     ./pseudopot/Li.pbe-mt_fhi.UPF
     MD5 check sum: 3419f5616d131090147e867976aae79b
     Pseudo is Norm-conserving + core correction, Zval =  1.0
     Generated using FHI98PP, converted with fhi2upf.x v.5.0.2
     Using radial grid of  433 points,  3 beta functions with: 
                l(1) =   0
                l(2) =   1
                l(3) =   3

     atomic species   valence    mass     pseudopotential
     Li                1.00     6.94000     Li( 1.00)

     48 Sym. Ops., with inversion, found



   Cartesian axes

     site n.     atom                  positions (alat units)
         1        Li     tau(   1) = (   0.0000000   0.0000000   0.0000000  )

     number of k points=    44  Methfessel-Paxton smearing, width (Ry)=  0.0100
                       cart. coord. in units 2pi/alat
        k(    1) = (   0.0000000   0.0000000   0.1000000), wk =   0.0120000
        k(    2) = (   0.0000000  -0.1000000   0.2000000), wk =   0.0480000
        k(    3) = (   0.0000000  -0.2000000   0.3000000), wk =   0.0480000
        k(    4) = (   0.0000000  -0.3000000   0.4000000), wk =   0.0480000
        k(    5) = (   0.0000000  -0.4000000   0.5000000), wk =   0.0480000
        k(    6) = (  -0.1000000   0.1000000   0.1000000), wk =   0.0160000
        k(    7) = (  -0.1000000  -0.1000000   0.3000000), wk =   0.0480000
        k(    8) = (  -0.1000000  -0.2000000   0.4000000), wk =   0.0960000
        k(    9) = (  -0.1000000  -0.3000000   0.5000000), wk =   0.0960000
        k(   10) = (  -0.1000000   0.6000000  -0.4000000), wk =   0.0480000
        k(   11) = (  -0.2000000   0.2000000   0.1000000), wk =   0.0480000
        k(   12) = (  -0.2000000  -0.2000000   0.5000000), wk =   0.0480000
        k(   13) = (  -0.2000000   0.7000000  -0.4000000), wk =   0.0960000
        k(   14) = (  -0.3000000   0.3000000   0.1000000), wk =   0.0480000
        k(   15) = (  -0.3000000   0.2000000   0.2000000), wk =   0.0480000
        k(   16) = (  -0.3000000   0.7000000  -0.3000000), wk =   0.0160000
        k(   17) = (  -0.4000000   0.4000000   0.1000000), wk =   0.0480000
        k(   18) = (  -0.4000000   0.3000000   0.2000000), wk =   0.0960000
        k(   19) = (   0.5000000  -0.5000000   0.1000000), wk =   0.0240000
        k(   20) = (   0.5000000  -0.6000000   0.2000000), wk =   0.0960000
        k(   21) = (   0.5000000  -0.7000000   0.3000000), wk =   0.0480000
        k(   22) = (   0.4000000  -0.6000000   0.3000000), wk =   0.0480000
        k(   23) = (   0.0000000   0.0000000   0.3000000), wk =   0.0120000
        k(   24) = (   0.0000000  -0.1000000   0.4000000), wk =   0.0480000
        k(   25) = (   0.0000000  -0.2000000   0.5000000), wk =   0.0480000
        k(   26) = (   0.0000000  -0.3000000   0.6000000), wk =   0.0480000
        k(   27) = (  -0.1000000  -0.1000000   0.5000000), wk =   0.0480000
        k(   28) = (  -0.1000000  -0.2000000   0.6000000), wk =   0.0960000
        k(   29) = (  -0.1000000   0.7000000  -0.3000000), wk =   0.0480000
        k(   30) = (  -0.2000000   0.8000000  -0.3000000), wk =   0.0480000
        k(   31) = (  -0.3000000   0.3000000   0.3000000), wk =   0.0160000
        k(   32) = (   0.6000000  -0.6000000   0.3000000), wk =   0.0480000
        k(   33) = (   0.5000000  -0.5000000   0.3000000), wk =   0.0240000
        k(   34) = (   0.5000000  -0.6000000   0.4000000), wk =   0.0480000
        k(   35) = (   0.0000000   0.0000000   0.5000000), wk =   0.0120000
        k(   36) = (   0.0000000  -0.1000000   0.6000000), wk =   0.0480000
        k(   37) = (   0.0000000  -0.2000000   0.7000000), wk =   0.0480000
        k(   38) = (  -0.1000000  -0.1000000   0.7000000), wk =   0.0480000
        k(   39) = (  -0.1000000   0.8000000  -0.2000000), wk =   0.0480000
        k(   40) = (   0.5000000  -0.5000000   0.5000000), wk =   0.0040000
        k(   41) = (   0.0000000   0.0000000   0.7000000), wk =   0.0120000
        k(   42) = (   0.0000000  -0.1000000   0.8000000), wk =   0.0480000
        k(   43) = (  -0.1000000   0.9000000  -0.1000000), wk =   0.0160000
        k(   44) = (   0.0000000   0.0000000   0.9000000), wk =   0.0120000

     Dense  grid:     1253 G-vectors     FFT dimensions: (  15,  15,  15)

     Estimated max dynamical RAM per process >       1.62 MB

     Initial potential from superposition of free atoms

     starting charge       0.9960, renormalised to       1.0000
     Starting wfcs are   16 randomized atomic wfcs

     total cpu time spent up to now is        0.1 secs

     Self-consistent Calculation

     iteration #  1     ecut=    16.00 Ry     beta= 0.70
     Davidson diagonalization with overlap
     ethr =  1.00E-02,  avg # of iterations =  4.4

     Threshold (ethr) on eigenvalues was too large:
     Diagonalizing with lowered threshold

     Davidson diagonalization with overlap
     ethr =  1.92E-05,  avg # of iterations =  3.7

     total cpu time spent up to now is        0.2 secs

     total energy              =      -0.69445904 Ry
     estimated scf accuracy    <       0.00018948 Ry

     iteration #  2     ecut=    16.00 Ry     beta= 0.70
     Davidson diagonalization with overlap
     ethr =  1.89E-05,  avg # of iterations =  1.0

     total cpu time spent up to now is        0.2 secs

     total energy              =      -0.69445864 Ry
     estimated scf accuracy    <       0.00001701 Ry

     iteration #  3     ecut=    16.00 Ry     beta= 0.70
     Davidson diagonalization with overlap
     ethr =  1.70E-06,  avg # of iterations =  1.1

     total cpu time spent up to now is        0.3 secs

     End of self-consistent calculation

          k = 0.0000 0.0000 0.1000 (   149 PWs)   bands (ev):

    -3.0621  13.9335  13.9336  14.1842  17.9213

          k = 0.0000-0.1000 0.2000 (   157 PWs)   bands (ev):

    -2.6853  11.7954  12.6560  13.6727  16.2816

          k = 0.0000-0.2000 0.3000 (   157 PWs)   bands (ev):

    -1.9339   8.7660  11.4059  12.8933  15.5790

          k = 0.0000-0.3000 0.4000 (   157 PWs)   bands (ev):

    -0.8347   5.9764  10.5165  12.2048  14.6155

          k = 0.0000-0.4000 0.5000 (   154 PWs)   bands (ev):

     0.4028   3.8680  10.0626  11.8289  14.1309

          k =-0.1000 0.1000 0.1000 (   156 PWs)   bands (ev):

    -2.8741  12.9595  13.3250  13.3251  17.2337

          k =-0.1000-0.1000 0.3000 (   155 PWs)   bands (ev):

    -2.1188  10.1333  10.6527  13.0214  15.4399

          k =-0.1000-0.2000 0.4000 (   159 PWs)   bands (ev):

    -1.1821   7.3868   9.4786  12.2799  15.4338

          k =-0.1000-0.3000 0.5000 (   160 PWs)   bands (ev):

     0.0631   4.8916   8.8221  11.7209  15.4734

          k =-0.1000 0.6000-0.4000 (   156 PWs)   bands (ev):

     0.9943   3.5333   8.6042  11.5235  15.4125

          k =-0.2000 0.2000 0.1000 (   155 PWs)   bands (ev):

    -2.3097  10.3308  11.8362  12.1697  16.7380

          k =-0.2000-0.2000 0.5000 (   155 PWs)   bands (ev):

    -0.0649   5.7894   7.6540  11.8235  15.6825

          k =-0.2000 0.7000-0.4000 (   153 PWs)   bands (ev):

     1.2816   3.9162   6.9565  11.5400  16.1666

          k =-0.3000 0.3000 0.1000 (   159 PWs)   bands (ev):

    -1.3778   7.3329  10.8742  11.1529  16.0493

          k =-0.3000 0.2000 0.2000 (   159 PWs)   bands (ev):

    -1.5589   8.6308   9.5612  10.9821  17.5296

          k =-0.3000 0.7000-0.3000 (   152 PWs)   bands (ev):

     2.6837   2.6837   6.2084  11.4772  17.4247

          k =-0.4000 0.4000 0.1000 (   157 PWs)   bands (ev):

    -0.1459   4.8032  10.2711  10.5032  15.4928

          k =-0.4000 0.3000 0.2000 (   156 PWs)   bands (ev):

    -0.4483   6.0761   8.4832  10.2894  17.6264

          k = 0.5000-0.5000 0.1000 (   154 PWs)   bands (ev):

     0.7533   3.4649  10.0689  10.2826  15.2922

          k = 0.5000-0.6000 0.2000 (   156 PWs)   bands (ev):

     0.8486   3.9445   8.0199   9.9339  17.4845

          k = 0.5000-0.7000 0.3000 (   158 PWs)   bands (ev):

     0.8269   4.6148   6.7906   9.8651  18.9815

          k = 0.4000-0.6000 0.3000 (   154 PWs)   bands (ev):

     1.9655   3.2998   6.3306   9.7223  19.0443

          k = 0.0000 0.0000 0.3000 (   156 PWs)   bands (ev):

    -2.3048  11.2533  11.2533  13.1549  13.9829

          k = 0.0000-0.1000 0.4000 (   160 PWs)   bands (ev):

    -1.5460   8.8979   9.9449  12.5892  13.5029

          k = 0.0000-0.2000 0.5000 (   154 PWs)   bands (ev):

    -0.4294   6.2064   9.0340  11.9775  14.2834

          k = 0.0000-0.3000 0.6000 (   158 PWs)   bands (ev):

     0.8555   4.0793   8.5685  11.6482  15.2755

          k =-0.1000-0.1000 0.5000 (   157 PWs)   bands (ev):

    -0.5957   7.3575   8.3062  12.6331  12.7496

          k =-0.1000-0.2000 0.6000 (   153 PWs)   bands (ev):

     0.6856   5.1559   7.4812  12.1830  13.6853

          k =-0.1000 0.7000-0.3000 (   154 PWs)   bands (ev):

     1.7138   3.7527   7.2423  12.0119  14.5687

          k =-0.2000 0.8000-0.3000 (   149 PWs)   bands (ev):

     2.0905   3.8676   6.3434  12.7931  13.8720

          k =-0.3000 0.3000 0.3000 (   156 PWs)   bands (ev):

    -0.6225   7.4853   7.4853   9.5138  19.1015

          k = 0.6000-0.6000 0.3000 (   154 PWs)   bands (ev):

     0.6553   5.0605   6.7842   8.9949  19.8745

          k = 0.5000-0.5000 0.3000 (   154 PWs)   bands (ev):

     1.7250   3.5813   6.5490   8.8387  20.0601

          k = 0.5000-0.6000 0.4000 (   152 PWs)   bands (ev):

     2.0817   3.9019   5.3981   8.6007  21.1744

          k = 0.0000 0.0000 0.5000 (   160 PWs)   bands (ev):

    -0.7717   8.6164   8.6164  11.0267  12.4310

          k = 0.0000-0.1000 0.6000 (   153 PWs)   bands (ev):

     0.3752   6.6425   7.6937  10.7928  12.4854

          k = 0.0000-0.2000 0.7000 (   152 PWs)   bands (ev):

     1.7502   4.5451   7.2246  10.9386  13.4336

          k =-0.1000-0.1000 0.7000 (   149 PWs)   bands (ev):

     1.6987   5.4581   6.6119  10.8450  12.4036

          k =-0.1000 0.8000-0.2000 (   148 PWs)   bands (ev):

     2.9014   4.1252   6.2649  11.2739  12.9304

          k = 0.5000-0.5000 0.5000 (   152 PWs)   bands (ev):

     3.6628   3.6628   3.6628   8.2664  23.1587

          k = 0.0000 0.0000 0.7000 (   152 PWs)   bands (ev):

     1.5632   6.7656   6.7656   9.0555  11.9554

          k = 0.0000-0.1000 0.8000 (   153 PWs)   bands (ev):

     3.0438   5.2831   6.2937   9.3585  11.4012

          k =-0.1000 0.9000-0.1000 (   158 PWs)   bands (ev):

     4.4976   4.4976   5.8178   9.8795   9.8795

          k = 0.0000 0.0000 0.9000 (   160 PWs)   bands (ev):

     4.6082   5.8218   5.8218   8.0697   9.1979

     the Fermi energy is     0.4282 ev

!    total energy              =      -0.69445875 Ry
     estimated scf accuracy    <          1.3E-09 Ry
     smearing contrib. (-TS)   =      -0.00005589 Ry
     internal energy E=F+TS    =      -0.69440286 Ry

     The total energy is F=E-TS. E is the sum of the following terms:
     one-electron contribution =       0.39817390 Ry
     hartree contribution      =       0.00096993 Ry
     xc contribution           =      -0.54214760 Ry
     ewald contribution        =      -0.55139908 Ry

     convergence has been achieved in   3 iterations

     Forces acting on atoms (cartesian axes, Ry/au):

     atom    1 type  1   force =     0.00000000    0.00000000    0.00000000

     Total force =     0.000000     Total SCF correction =     0.000000


     Computing stress (Cartesian axis) and pressure

          total   stress  (Ry/bohr**3)                   (kbar)     P=       -9.86
  -0.00006700   0.00000000   0.00000000           -9.86        0.00        0.00
   0.00000000  -0.00006700   0.00000000            0.00       -9.86        0.00
  -0.00000000   0.00000000  -0.00006700           -0.00        0.00       -9.86


     Writing all to output data dir ./QE-outdir/li.save/ :
     XML data file, charge density, pseudopotentials, collected wavefunctions

     init_run     :      0.04s CPU      0.06s WALL (       1 calls)
     electrons    :      0.12s CPU      0.21s WALL (       1 calls)
     forces       :      0.00s CPU      0.00s WALL (       1 calls)
     stress       :      0.02s CPU      0.02s WALL (       1 calls)

     Called by init_run:
     wfcinit      :      0.03s CPU      0.05s WALL (       1 calls)
     potinit      :      0.00s CPU      0.00s WALL (       1 calls)
     hinit0       :      0.01s CPU      0.01s WALL (       1 calls)

     Called by electrons:
     c_bands      :      0.11s CPU      0.19s WALL (       4 calls)
     sum_band     :      0.01s CPU      0.01s WALL (       4 calls)
     v_of_rho     :      0.00s CPU      0.00s WALL (       4 calls)
     mix_rho      :      0.00s CPU      0.00s WALL (       4 calls)

     Called by c_bands:
     init_us_2    :      0.01s CPU      0.01s WALL (     484 calls)
     cegterg      :      0.10s CPU      0.19s WALL (     176 calls)

     Called by *egterg:
     cdiaghg      :      0.07s CPU      0.16s WALL (     582 calls)
     h_psi        :      0.05s CPU      0.05s WALL (     670 calls)
     g_psi        :      0.00s CPU      0.00s WALL (     450 calls)

     Called by h_psi:
     h_psi:calbec :      0.00s CPU      0.00s WALL (     670 calls)
     vloc_psi     :      0.05s CPU      0.05s WALL (     670 calls)
                                        0.00s GPU  (     670 calls)
     add_vuspsi   :      0.00s CPU      0.00s WALL (     670 calls)

     General routines
     calbec       :      0.00s CPU      0.01s WALL (    1418 calls)
     fft          :      0.00s CPU      0.00s WALL (      65 calls)
     ffts         :      0.00s CPU      0.00s WALL (       4 calls)
     fftw         :      0.04s CPU      0.04s WALL (    7268 calls)

     Parallel routines

     PWSCF        :      0.19s CPU      0.30s WALL


   This run was terminated on:  19:27:42  25Jan2026            

=------------------------------------------------------------------------------=
   JOB DONE.
=------------------------------------------------------------------------------=
