
     Program PWSCF v.7.5 starts on 26Jan2026 at 14: 1: 7 

     This program is part of the open-source Quantum ESPRESSO suite
     for quantum simulation of materials; please cite
         "P. Giannozzi et al., J. Phys.:Condens. Matter 21 395502 (2009);
         "P. Giannozzi et al., J. Phys.:Condens. Matter 29 465901 (2017);
         "P. Giannozzi et al., J. Chem. Phys. 152 154105 (2020);
          URL http://www.quantum-espresso.org", 
     in publications or presentations arising from this work. More details at
     http://www.quantum-espresso.org/quote

     Parallel version (MPI), running on     1 processors

     MPI processes distributed on     1 nodes
     0 MiB available memory on the printing compute node when the environment starts

     Waiting for input...
     Reading input from standard input
     Message from routine read_cards :
     DEPRECATED: no units specified in ATOMIC_POSITIONS card
     Message from routine read_cards :
     ATOMIC_POSITIONS: units set to alat

     Current dimensions of program PWSCF are:
     Max number of different atomic species (ntypx) = 10
     Max number of k-points (npk) =  40000
     Max angular momentum in pseudopotentials (lmaxx) =  4
     file Li.pbe-mt_fhi.UPF: wavefunction(s)  2p 4f renormalized

     Subspace diagonalization in iterative solution of the eigenvalue problem:
     a serial algorithm will be used


     G-vector sticks info
     --------------------
     sticks:   dense  smooth     PW     G-vecs:    dense   smooth      PW
     Sum         201     201     67                 1745     1745     369

     Using Slab Decomposition



     bravais-lattice index     =            3
     lattice parameter (alat)  =       6.6000  a.u.
     unit-cell volume          =     143.7480 (a.u.)^3
     number of atoms/cell      =            1
     number of atomic types    =            1
     number of electrons       =         1.00
     number of Kohn-Sham states=            5
     kinetic-energy cutoff     =      20.0000  Ry
     charge density cutoff     =      80.0000  Ry
     scf convergence threshold =      1.0E-08
     mixing beta               =       0.7000
     number of iterations used =            8  plain     mixing
     Exchange-correlation= PBE
                           (   1   4   3   4   0   0   0)

     celldm(1)=   6.600000  celldm(2)=   0.000000  celldm(3)=   0.000000
     celldm(4)=   0.000000  celldm(5)=   0.000000  celldm(6)=   0.000000

     crystal axes: (cart. coord. in units of alat)
               a(1) = (   0.500000   0.500000   0.500000 )  
               a(2) = (  -0.500000   0.500000   0.500000 )  
               a(3) = (  -0.500000  -0.500000   0.500000 )  

     reciprocal axes: (cart. coord. in units 2 pi/alat)
               b(1) = (  1.000000  0.000000  1.000000 )  
               b(2) = ( -1.000000  1.000000  0.000000 )  
               b(3) = (  0.000000 -1.000000  1.000000 )  


     PseudoPot. # 1 for Li read from file:
     ./pseudopot/Li.pbe-mt_fhi.UPF
     MD5 check sum: 3419f5616d131090147e867976aae79b
     Pseudo is Norm-conserving + core correction, Zval =  1.0
     Generated using FHI98PP, converted with fhi2upf.x v.5.0.2
     Using radial grid of  433 points,  3 beta functions with: 
                l(1) =   0
                l(2) =   1
                l(3) =   3

     atomic species   valence    mass     pseudopotential
     Li                1.00     6.94000     Li( 1.00)

     48 Sym. Ops., with inversion, found



   Cartesian axes

     site n.     atom                  positions (alat units)
         1        Li     tau(   1) = (   0.0000000   0.0000000   0.0000000  )

     number of k points=    68  Methfessel-Paxton smearing, width (Ry)=  0.0100
                       cart. coord. in units 2pi/alat
        k(    1) = (   0.0000000   0.0000000   0.0833333), wk =   0.0069444
        k(    2) = (   0.0000000  -0.0833333   0.1666667), wk =   0.0277778
        k(    3) = (   0.0000000  -0.1666667   0.2500000), wk =   0.0277778
        k(    4) = (   0.0000000  -0.2500000   0.3333333), wk =   0.0277778
        k(    5) = (   0.0000000  -0.3333333   0.4166667), wk =   0.0277778
        k(    6) = (   0.0000000  -0.4166667   0.5000000), wk =   0.0277778
        k(    7) = (  -0.0833333   0.0833333   0.0833333), wk =   0.0092593
        k(    8) = (  -0.0833333  -0.0833333   0.2500000), wk =   0.0277778
        k(    9) = (  -0.0833333  -0.1666667   0.3333333), wk =   0.0555556
        k(   10) = (  -0.0833333  -0.2500000   0.4166667), wk =   0.0555556
        k(   11) = (  -0.0833333  -0.3333333   0.5000000), wk =   0.0555556
        k(   12) = (  -0.0833333   0.5833333  -0.4166667), wk =   0.0277778
        k(   13) = (  -0.1666667   0.1666667   0.0833333), wk =   0.0277778
        k(   14) = (  -0.1666667  -0.1666667   0.4166667), wk =   0.0277778
        k(   15) = (  -0.1666667  -0.2500000   0.5000000), wk =   0.0555556
        k(   16) = (  -0.1666667   0.6666667  -0.4166667), wk =   0.0555556
        k(   17) = (  -0.2500000   0.2500000   0.0833333), wk =   0.0277778
        k(   18) = (  -0.2500000   0.1666667   0.1666667), wk =   0.0277778
        k(   19) = (  -0.2500000   0.7500000  -0.4166667), wk =   0.0277778
        k(   20) = (  -0.2500000   0.6666667  -0.3333333), wk =   0.0277778
        k(   21) = (  -0.3333333   0.3333333   0.0833333), wk =   0.0277778
        k(   22) = (  -0.3333333   0.2500000   0.1666667), wk =   0.0555556
        k(   23) = (  -0.4166667   0.4166667   0.0833333), wk =   0.0277778
        k(   24) = (  -0.4166667   0.3333333   0.1666667), wk =   0.0555556
        k(   25) = (  -0.4166667   0.2500000   0.2500000), wk =   0.0277778
        k(   26) = (   0.5000000  -0.5000000   0.0833333), wk =   0.0138889
        k(   27) = (   0.5000000  -0.5833333   0.1666667), wk =   0.0555556
        k(   28) = (   0.5000000  -0.6666667   0.2500000), wk =   0.0555556
        k(   29) = (   0.4166667  -0.5833333   0.2500000), wk =   0.0277778
        k(   30) = (   0.4166667  -0.6666667   0.3333333), wk =   0.0277778
        k(   31) = (   0.0000000   0.0000000   0.2500000), wk =   0.0069444
        k(   32) = (   0.0000000  -0.0833333   0.3333333), wk =   0.0277778
        k(   33) = (   0.0000000  -0.1666667   0.4166667), wk =   0.0277778
        k(   34) = (   0.0000000  -0.2500000   0.5000000), wk =   0.0277778
        k(   35) = (   0.0000000  -0.3333333   0.5833333), wk =   0.0277778
        k(   36) = (  -0.0833333  -0.0833333   0.4166667), wk =   0.0277778
        k(   37) = (  -0.0833333  -0.1666667   0.5000000), wk =   0.0555556
        k(   38) = (  -0.0833333  -0.2500000   0.5833333), wk =   0.0555556
        k(   39) = (  -0.0833333   0.6666667  -0.3333333), wk =   0.0277778
        k(   40) = (  -0.1666667  -0.1666667   0.5833333), wk =   0.0277778
        k(   41) = (  -0.1666667   0.7500000  -0.3333333), wk =   0.0555556
        k(   42) = (  -0.2500000   0.2500000   0.2500000), wk =   0.0092593
        k(   43) = (  -0.2500000   0.7500000  -0.2500000), wk =   0.0092593
        k(   44) = (  -0.3333333   0.3333333   0.2500000), wk =   0.0277778
        k(   45) = (   0.5833333  -0.5833333   0.2500000), wk =   0.0277778
        k(   46) = (   0.5833333  -0.6666667   0.3333333), wk =   0.0277778
        k(   47) = (   0.5000000  -0.5000000   0.2500000), wk =   0.0138889
        k(   48) = (   0.5000000  -0.5833333   0.3333333), wk =   0.0555556
        k(   49) = (   0.4166667  -0.5833333   0.4166667), wk =   0.0092593
        k(   50) = (   0.0000000   0.0000000   0.4166667), wk =   0.0069444
        k(   51) = (   0.0000000  -0.0833333   0.5000000), wk =   0.0277778
        k(   52) = (   0.0000000  -0.1666667   0.5833333), wk =   0.0277778
        k(   53) = (   0.0000000  -0.2500000   0.6666667), wk =   0.0277778
        k(   54) = (  -0.0833333  -0.0833333   0.5833333), wk =   0.0277778
        k(   55) = (  -0.0833333  -0.1666667   0.6666667), wk =   0.0555556
        k(   56) = (  -0.0833333   0.7500000  -0.2500000), wk =   0.0277778
        k(   57) = (  -0.1666667   0.8333333  -0.2500000), wk =   0.0277778
        k(   58) = (   0.5833333  -0.5833333   0.4166667), wk =   0.0092593
        k(   59) = (   0.5000000  -0.5000000   0.4166667), wk =   0.0138889
        k(   60) = (   0.0000000   0.0000000   0.5833333), wk =   0.0069444
        k(   61) = (   0.0000000  -0.0833333   0.6666667), wk =   0.0277778
        k(   62) = (   0.0000000  -0.1666667   0.7500000), wk =   0.0277778
        k(   63) = (  -0.0833333  -0.0833333   0.7500000), wk =   0.0277778
        k(   64) = (  -0.0833333   0.8333333  -0.1666667), wk =   0.0277778
        k(   65) = (   0.0000000   0.0000000   0.7500000), wk =   0.0069444
        k(   66) = (   0.0000000  -0.0833333   0.8333333), wk =   0.0277778
        k(   67) = (  -0.0833333   0.9166667  -0.0833333), wk =   0.0092593
        k(   68) = (   0.0000000   0.0000000   0.9166667), wk =   0.0069444

     Dense  grid:     1745 G-vectors     FFT dimensions: (  18,  18,  18)

     Estimated max dynamical RAM per process >       2.66 MB

     Initial potential from superposition of free atoms

     starting charge       0.9960, renormalised to       1.0000
     Starting wfcs are   16 randomized atomic wfcs

     total cpu time spent up to now is        0.1 secs

     Self-consistent Calculation

     iteration #  1     ecut=    20.00 Ry     beta= 0.70
     Davidson diagonalization with overlap
     ethr =  1.00E-02,  avg # of iterations =  4.7

     Threshold (ethr) on eigenvalues was too large:
     Diagonalizing with lowered threshold

     Davidson diagonalization with overlap
     ethr =  1.86E-05,  avg # of iterations =  4.0

     total cpu time spent up to now is        0.4 secs

     total energy              =      -0.69448608 Ry
     estimated scf accuracy    <       0.00018637 Ry

     iteration #  2     ecut=    20.00 Ry     beta= 0.70
     Davidson diagonalization with overlap
     ethr =  1.86E-05,  avg # of iterations =  1.0

     total cpu time spent up to now is        0.5 secs

     total energy              =      -0.69448556 Ry
     estimated scf accuracy    <       0.00001679 Ry

     iteration #  3     ecut=    20.00 Ry     beta= 0.70
     Davidson diagonalization with overlap
     ethr =  1.68E-06,  avg # of iterations =  1.4

     total cpu time spent up to now is        0.6 secs

     End of self-consistent calculation

          k = 0.0000 0.0000 0.0833 (   213 PWs)   bands (ev):

    -3.0929  14.0476  14.0476  14.2289  18.6160

          k = 0.0000-0.0833 0.1667 (   213 PWs)   bands (ev):

    -2.8311  12.4940  13.0641  13.8502  16.6618

          k = 0.0000-0.1667 0.2500 (   211 PWs)   bands (ev):

    -2.3083  10.0210  11.9654  13.2294  15.9897

          k = 0.0000-0.2500 0.3333 (   215 PWs)   bands (ev):

    -1.5315   7.5370  11.0635  12.5753  14.9868

          k = 0.0000-0.3333 0.4167 (   214 PWs)   bands (ev):

    -0.5369   5.3492  10.4421  12.0749  14.3136

          k = 0.0000-0.4167 0.5000 (   213 PWs)   bands (ev):

     0.4613   3.7438  10.1275  11.8097  13.9761

          k =-0.0833 0.0833 0.0833 (   213 PWs)   bands (ev):

    -2.9622  13.2897  13.6721  13.6722  17.4158

          k =-0.0833-0.0833 0.2500 (   211 PWs)   bands (ev):

    -2.4380  11.1748  11.4473  13.2936  15.8162

          k =-0.0833-0.1667 0.3333 (   213 PWs)   bands (ev):

    -1.7847   8.7964  10.3799  12.6214  15.6234

          k =-0.0833-0.2500 0.4167 (   217 PWs)   bands (ev):

    -0.8855   6.4655   9.6374  12.0055  15.5442

          k =-0.0833-0.3333 0.5000 (   219 PWs)   bands (ev):

     0.1808   4.5077   9.1847  11.5975  15.3043

          k =-0.0833 0.5833-0.4167 (   215 PWs)   bands (ev):

     0.8785   3.5091   9.0330  11.4569  15.1977

          k =-0.1667 0.1667 0.0833 (   216 PWs)   bands (ev):

    -2.5701  11.3357  12.3521  12.8158  16.7889

          k =-0.1667-0.1667 0.4167 (   217 PWs)   bands (ev):

    -1.0025   7.3411   8.6904  12.0805  15.6166

          k =-0.1667-0.2500 0.5000 (   219 PWs)   bands (ev):

     0.0139   5.4445   7.8680  11.6447  15.8753

          k =-0.1667 0.6667-0.4167 (   218 PWs)   bands (ev):

     1.0916   3.8377   7.5240  11.4037  16.0280

          k =-0.2500 0.2500 0.0833 (   212 PWs)   bands (ev):

    -1.9189   8.7732  11.4172  11.9183  16.1099

          k =-0.2500 0.1667 0.1667 (   210 PWs)   bands (ev):

    -2.0479   9.9262  10.5392  11.6417  17.1904

          k =-0.2500 0.7500-0.4167 (   219 PWs)   bands (ev):

     1.1326   4.2218   6.7371  11.4143  16.5128

          k =-0.2500 0.6667-0.3333 (   217 PWs)   bands (ev):

     2.0529   3.2132   6.4042  11.3308  16.9410

          k =-0.3333 0.3333 0.0833 (   213 PWs)   bands (ev):

    -1.0239   6.4049  10.7149  11.2046  15.4736

          k =-0.3333 0.2500 0.1667 (   214 PWs)   bands (ev):

    -1.2689   7.6121   9.5265  10.8908  17.2073

          k =-0.4167 0.4167 0.0833 (   216 PWs)   bands (ev):

     0.0317   4.4421  10.2812  10.7573  15.0504

          k =-0.4167 0.3333 0.1667 (   214 PWs)   bands (ev):

    -0.2623   5.4384   8.9176  10.3730  16.9732

          k =-0.4167 0.2500 0.2500 (   217 PWs)   bands (ev):

    -0.3648   6.2221   7.8697  10.3532  18.0642

          k = 0.5000-0.5000 0.0833 (   218 PWs)   bands (ev):

     0.7113   3.4571  10.1346  10.6061  14.9044

          k = 0.5000-0.5833 0.1667 (   215 PWs)   bands (ev):

     0.7785   3.7988   8.6128  10.1088  16.7973

          k = 0.5000-0.6667 0.2500 (   214 PWs)   bands (ev):

     0.7428   4.5132   7.1442  10.0227  18.1739

          k = 0.4167-0.5833 0.2500 (   216 PWs)   bands (ev):

     1.5532   3.4569   6.9427   9.9109  18.1701

          k = 0.4167-0.6667 0.3333 (   218 PWs)   bands (ev):

     1.9285   3.3977   6.2048   9.8441  19.3136

          k = 0.0000 0.0000 0.2500 (   217 PWs)   bands (ev):

    -2.5678  11.9695  11.9695  13.3923  14.8748

          k = 0.0000-0.0833 0.3333 (   212 PWs)   bands (ev):

    -2.0415  10.0452  10.8116  12.9742  14.1088

          k = 0.0000-0.1667 0.4167 (   221 PWs)   bands (ev):

    -1.2583   7.6737   9.8806  12.4027  14.4215

          k = 0.0000-0.2500 0.5000 (   219 PWs)   bands (ev):

    -0.2503   5.5097   9.2443  11.9435  15.0913

          k = 0.0000-0.3333 0.5833 (   214 PWs)   bands (ev):

     0.7811   3.8843   8.9229  11.7011  15.7243

          k =-0.0833-0.0833 0.4167 (   215 PWs)   bands (ev):

    -1.3822   8.6835   9.3265  12.7781  13.3854

          k =-0.0833-0.1667 0.5000 (   218 PWs)   bands (ev):

    -0.4712   6.6299   8.4414  12.3627  13.7716

          k =-0.0833-0.2500 0.5833 (   216 PWs)   bands (ev):

     0.6250   4.7118   7.9657  12.0049  14.5532

          k =-0.0833 0.6667-0.3333 (   216 PWs)   bands (ev):

     1.3789   3.6738   7.8088  11.8792  15.0181

          k =-0.1667-0.1667 0.5833 (   219 PWs)   bands (ev):

     0.5588   5.3559   7.1841  12.5280  13.7668

          k =-0.1667 0.7500-0.3333 (   218 PWs)   bands (ev):

     1.7044   3.9141   6.6732  12.4352  14.4896

          k =-0.2500 0.2500 0.2500 (   210 PWs)   bands (ev):

    -1.3970   8.8491   8.8491  10.1672  18.2185

          k =-0.2500 0.7500-0.2500 (   221 PWs)   bands (ev):

     2.8803   2.8803   6.1649  12.6236  15.2673

          k =-0.3333 0.3333 0.2500 (   217 PWs)   bands (ev):

    -0.4927   6.5918   8.0536   9.5656  18.9582

          k = 0.5833-0.5833 0.2500 (   214 PWs)   bands (ev):

     0.6078   4.6186   7.5700   9.2323  18.9200

          k = 0.5833-0.6667 0.3333 (   220 PWs)   bands (ev):

     0.5338   5.4060   6.5843   9.0549  19.8559

          k = 0.5000-0.5000 0.2500 (   218 PWs)   bands (ev):

     1.3862   3.5438   7.4076   9.1222  18.9213

          k = 0.5000-0.5833 0.3333 (   217 PWs)   bands (ev):

     1.6994   3.8881   6.0650   8.8381  20.3345

          k = 0.4167-0.5833 0.4167 (   222 PWs)   bands (ev):

     2.9001   2.9001   5.4405   8.7290  20.9533

          k = 0.0000 0.0000 0.4167 (   217 PWs)   bands (ev):

    -1.5082   9.6247   9.6247  12.1380  12.6596

          k = 0.0000-0.0833 0.5000 (   216 PWs)   bands (ev):

    -0.7126   7.8920   8.6801  11.6286  12.6169

          k = 0.0000-0.1667 0.5833 (   221 PWs)   bands (ev):

     0.3195   5.8394   8.0363  11.4561  13.2437

          k = 0.0000-0.2500 0.6667 (   219 PWs)   bands (ev):

     1.4149   4.1880   7.7116  11.3280  14.2821

          k =-0.0833-0.0833 0.5833 (   221 PWs)   bands (ev):

     0.2152   6.7306   7.5624  11.4113  12.4657

          k =-0.0833-0.1667 0.6667 (   222 PWs)   bands (ev):

     1.3534   5.0537   6.9749  11.5677  12.9543

          k =-0.0833 0.7500-0.2500 (   219 PWs)   bands (ev):

     2.2079   3.9670   6.8038  11.5706  13.9178

          k =-0.1667 0.8333-0.2500 (   218 PWs)   bands (ev):

     2.5625   4.0211   6.1885  12.4641  12.8785

          k = 0.5833-0.5833 0.4167 (   222 PWs)   bands (ev):

     1.6814   4.9123   4.9123   8.5104  21.5772

          k = 0.5000-0.5000 0.4167 (   220 PWs)   bands (ev):

     2.7338   3.6414   4.7472   8.3666  22.0838

          k = 0.0000 0.0000 0.5833 (   225 PWs)   bands (ev):

     0.1010   7.7282   7.7282  10.0848  12.2497

          k = 0.0000-0.0833 0.6667 (   220 PWs)   bands (ev):

     1.1644   6.2986   7.0817  10.0149  12.2471

          k = 0.0000-0.1667 0.7500 (   220 PWs)   bands (ev):

     2.3474   4.6833   6.7553  10.3816  12.7437

          k =-0.0833-0.0833 0.7500 (   222 PWs)   bands (ev):

     2.3431   5.4093   6.3420  10.0736  12.0267

          k =-0.0833 0.8333-0.1667 (   224 PWs)   bands (ev):

     3.3510   4.3716   6.0979  10.5345  11.8032

          k = 0.0000 0.0000 0.7500 (   228 PWs)   bands (ev):

     2.2658   6.4323   6.4323   8.7158  11.6279

          k = 0.0000-0.0833 0.8333 (   228 PWs)   bands (ev):

     3.5384   5.3520   6.1054   8.9871  10.7167

          k =-0.0833 0.9167-0.0833 (   230 PWs)   bands (ev):

     4.7447   4.7447   5.7771   9.4012   9.4012

          k = 0.0000 0.0000 0.9167 (   236 PWs)   bands (ev):

     4.8595   5.7781   5.7781   8.0313   8.8915

     the Fermi energy is     0.4392 ev

!    total energy              =      -0.69448565 Ry
     estimated scf accuracy    <          1.1E-09 Ry
     smearing contrib. (-TS)   =       0.00006861 Ry
     internal energy E=F+TS    =      -0.69455426 Ry

     The total energy is F=E-TS. E is the sum of the following terms:
     one-electron contribution =       0.39808888 Ry
     hartree contribution      =       0.00096398 Ry
     xc contribution           =      -0.54220807 Ry
     ewald contribution        =      -0.55139904 Ry

     convergence has been achieved in   3 iterations

     Forces acting on atoms (cartesian axes, Ry/au):

     atom    1 type  1   force =     0.00000000    0.00000000    0.00000000

     Total force =     0.000000     Total SCF correction =     0.000000


     Computing stress (Cartesian axis) and pressure

          total   stress  (Ry/bohr**3)                   (kbar)     P=       -9.21
  -0.00006260  -0.00000000   0.00000000           -9.21       -0.00        0.00
  -0.00000000  -0.00006260   0.00000000           -0.00       -9.21        0.00
   0.00000000   0.00000000  -0.00006260            0.00        0.00       -9.21


     Writing all to output data dir ./QE-outdir/li.save/ :
     XML data file, charge density, pseudopotentials, collected wavefunctions

     init_run     :      0.09s CPU      0.11s WALL (       1 calls)
     electrons    :      0.34s CPU      0.49s WALL (       1 calls)
     forces       :      0.00s CPU      0.00s WALL (       1 calls)
     stress       :      0.04s CPU      0.04s WALL (       1 calls)

     Called by init_run:
     wfcinit      :      0.07s CPU      0.10s WALL (       1 calls)
     potinit      :      0.00s CPU      0.00s WALL (       1 calls)
     hinit0       :      0.01s CPU      0.01s WALL (       1 calls)

     Called by electrons:
     c_bands      :      0.30s CPU      0.44s WALL (       4 calls)
     sum_band     :      0.04s CPU      0.04s WALL (       4 calls)
     v_of_rho     :      0.00s CPU      0.00s WALL (       4 calls)
     mix_rho      :      0.00s CPU      0.00s WALL (       4 calls)

     Called by c_bands:
     init_us_2    :      0.02s CPU      0.02s WALL (     748 calls)
     cegterg      :      0.29s CPU      0.43s WALL (     272 calls)

     Called by *egterg:
     cdiaghg      :      0.11s CPU      0.27s WALL (     956 calls)
     h_psi        :      0.22s CPU      0.23s WALL (    1092 calls)
     g_psi        :      0.00s CPU      0.00s WALL (     752 calls)

     Called by h_psi:
     h_psi:calbec :      0.00s CPU      0.01s WALL (    1092 calls)
     vloc_psi     :      0.21s CPU      0.22s WALL (    1092 calls)
                                        0.00s GPU  (    1092 calls)
     add_vuspsi   :      0.00s CPU      0.00s WALL (    1092 calls)

     General routines
     calbec       :      0.01s CPU      0.01s WALL (    2248 calls)
     fft          :      0.00s CPU      0.00s WALL (      65 calls)
     ffts         :      0.00s CPU      0.00s WALL (       4 calls)
     fftw         :      0.22s CPU      0.22s WALL (   11402 calls)

     Parallel routines

     PWSCF        :      0.48s CPU      0.66s WALL


   This run was terminated on:  14: 1: 8  26Jan2026            

=------------------------------------------------------------------------------=
   JOB DONE.
=------------------------------------------------------------------------------=
