
     Program PWSCF v.7.5 starts on 25Jan2026 at 19:12:11 

     This program is part of the open-source Quantum ESPRESSO suite
     for quantum simulation of materials; please cite
         "P. Giannozzi et al., J. Phys.:Condens. Matter 21 395502 (2009);
         "P. Giannozzi et al., J. Phys.:Condens. Matter 29 465901 (2017);
         "P. Giannozzi et al., J. Chem. Phys. 152 154105 (2020);
          URL http://www.quantum-espresso.org", 
     in publications or presentations arising from this work. More details at
     http://www.quantum-espresso.org/quote

     Parallel version (MPI), running on     1 processors

     MPI processes distributed on     1 nodes
     0 MiB available memory on the printing compute node when the environment starts

     Waiting for input...
     Reading input from standard input
     Message from routine read_cards :
     DEPRECATED: no units specified in ATOMIC_POSITIONS card
     Message from routine read_cards :
     ATOMIC_POSITIONS: units set to alat

     Current dimensions of program PWSCF are:
     Max number of different atomic species (ntypx) = 10
     Max number of k-points (npk) =  40000
     Max angular momentum in pseudopotentials (lmaxx) =  4
     file Li.pbe-mt_fhi.UPF: wavefunction(s)  2p 4f renormalized

     Subspace diagonalization in iterative solution of the eigenvalue problem:
     a serial algorithm will be used


     G-vector sticks info
     --------------------
     sticks:   dense  smooth     PW     G-vecs:    dense   smooth      PW
     Sum         887     887    261                16487    16487    2659

     Using Slab Decomposition



     bravais-lattice index     =            3
     lattice parameter (alat)  =       6.6000  a.u.
     unit-cell volume          =     143.7480 (a.u.)^3
     number of atoms/cell      =            1
     number of atomic types    =            1
     number of electrons       =         1.00
     number of Kohn-Sham states=            5
     kinetic-energy cutoff     =      90.0000  Ry
     charge density cutoff     =     360.0000  Ry
     scf convergence threshold =      1.0E-08
     mixing beta               =       0.7000
     number of iterations used =            8  plain     mixing
     Exchange-correlation= PBE
                           (   1   4   3   4   0   0   0)

     celldm(1)=   6.600000  celldm(2)=   0.000000  celldm(3)=   0.000000
     celldm(4)=   0.000000  celldm(5)=   0.000000  celldm(6)=   0.000000

     crystal axes: (cart. coord. in units of alat)
               a(1) = (   0.500000   0.500000   0.500000 )  
               a(2) = (  -0.500000   0.500000   0.500000 )  
               a(3) = (  -0.500000  -0.500000   0.500000 )  

     reciprocal axes: (cart. coord. in units 2 pi/alat)
               b(1) = (  1.000000  0.000000  1.000000 )  
               b(2) = ( -1.000000  1.000000  0.000000 )  
               b(3) = (  0.000000 -1.000000  1.000000 )  


     PseudoPot. # 1 for Li read from file:
     ./pseudopot/Li.pbe-mt_fhi.UPF
     MD5 check sum: 3419f5616d131090147e867976aae79b
     Pseudo is Norm-conserving + core correction, Zval =  1.0
     Generated using FHI98PP, converted with fhi2upf.x v.5.0.2
     Using radial grid of  433 points,  3 beta functions with: 
                l(1) =   0
                l(2) =   1
                l(3) =   3

     atomic species   valence    mass     pseudopotential
     Li                1.00     6.94000     Li( 1.00)

     48 Sym. Ops., with inversion, found



   Cartesian axes

     site n.     atom                  positions (alat units)
         1        Li     tau(   1) = (   0.0000000   0.0000000   0.0000000  )

     number of k points=     6  Methfessel-Paxton smearing, width (Ry)=  0.0100
                       cart. coord. in units 2pi/alat
        k(    1) = (   0.0000000   0.0000000   0.2500000), wk =   0.1875000
        k(    2) = (   0.0000000  -0.2500000   0.5000000), wk =   0.7500000
        k(    3) = (  -0.2500000   0.2500000   0.2500000), wk =   0.2500000
        k(    4) = (  -0.2500000   0.7500000  -0.2500000), wk =   0.2500000
        k(    5) = (   0.5000000  -0.5000000   0.2500000), wk =   0.3750000
        k(    6) = (   0.0000000   0.0000000   0.7500000), wk =   0.1875000

     Dense  grid:    16487 G-vectors     FFT dimensions: (  36,  36,  36)

     Estimated max dynamical RAM per process >      12.76 MB

     Initial potential from superposition of free atoms

     starting charge       0.9960, renormalised to       1.0000
     Starting wfcs are   16 randomized atomic wfcs

     total cpu time spent up to now is        0.1 secs

     Self-consistent Calculation

     iteration #  1     ecut=    90.00 Ry     beta= 0.70
     Davidson diagonalization with overlap
     ethr =  1.00E-02,  avg # of iterations =  5.0

     Threshold (ethr) on eigenvalues was too large:
     Diagonalizing with lowered threshold

     Davidson diagonalization with overlap
     ethr =  1.78E-05,  avg # of iterations =  4.0

     total cpu time spent up to now is        0.2 secs

     total energy              =      -0.69289148 Ry
     estimated scf accuracy    <       0.00017951 Ry

     iteration #  2     ecut=    90.00 Ry     beta= 0.70
     Davidson diagonalization with overlap
     ethr =  1.80E-05,  avg # of iterations =  1.0

     total cpu time spent up to now is        0.3 secs

     total energy              =      -0.69289411 Ry
     estimated scf accuracy    <       0.00001624 Ry

     iteration #  3     ecut=    90.00 Ry     beta= 0.70
     Davidson diagonalization with overlap
     ethr =  1.62E-06,  avg # of iterations =  1.5

     total cpu time spent up to now is        0.3 secs

     End of self-consistent calculation

          k = 0.0000 0.0000 0.2500 (  2070 PWs)   bands (ev):

    -2.5696  11.9646  11.9646  13.3866  14.8738

          k = 0.0000-0.2500 0.5000 (  2067 PWs)   bands (ev):

    -0.2523   5.5073   9.2401  11.9398  15.0874

          k =-0.2500 0.2500 0.2500 (  2091 PWs)   bands (ev):

    -1.3989   8.8457   8.8457  10.1616  18.2123

          k =-0.2500 0.7500-0.2500 (  2055 PWs)   bands (ev):

     2.8781   2.8781   6.1623  12.6177  15.2651

          k = 0.5000-0.5000 0.2500 (  2072 PWs)   bands (ev):

     1.3840   3.5416   7.4048   9.1183  18.9162

          k = 0.0000 0.0000 0.7500 (  2054 PWs)   bands (ev):

     2.2635   6.4294   6.4294   8.7150  11.6259

     the Fermi energy is    -0.2100 ev

!    total energy              =      -0.69289421 Ry
     estimated scf accuracy    <          1.2E-09 Ry
     smearing contrib. (-TS)   =      -0.00077365 Ry
     internal energy E=F+TS    =      -0.69212056 Ry

     The total energy is F=E-TS. E is the sum of the following terms:
     one-electron contribution =       0.40062185 Ry
     hartree contribution      =       0.00094963 Ry
     xc contribution           =      -0.54229303 Ry
     ewald contribution        =      -0.55139901 Ry

     convergence has been achieved in   3 iterations

     Forces acting on atoms (cartesian axes, Ry/au):

     atom    1 type  1   force =     0.00000000    0.00000000    0.00000000

     Total force =     0.000000     Total SCF correction =     0.000000


     Computing stress (Cartesian axis) and pressure

          total   stress  (Ry/bohr**3)                   (kbar)     P=       -8.19
  -0.00005566  -0.00000000   0.00000000           -8.19       -0.00        0.00
  -0.00000000  -0.00005566  -0.00000000           -0.00       -8.19       -0.00
   0.00000000  -0.00000000  -0.00005566            0.00       -0.00       -8.19


     Writing all to output data dir ./QE-outdir/li.save/ :
     XML data file, charge density, pseudopotentials, collected wavefunctions

     init_run     :      0.10s CPU      0.09s WALL (       1 calls)
     electrons    :      0.22s CPU      0.23s WALL (       1 calls)
     forces       :      0.01s CPU      0.01s WALL (       1 calls)
     stress       :      0.08s CPU      0.07s WALL (       1 calls)

     Called by init_run:
     wfcinit      :      0.06s CPU      0.05s WALL (       1 calls)
     potinit      :      0.01s CPU      0.01s WALL (       1 calls)
     hinit0       :      0.03s CPU      0.03s WALL (       1 calls)

     Called by electrons:
     c_bands      :      0.17s CPU      0.17s WALL (       4 calls)
     sum_band     :      0.03s CPU      0.03s WALL (       4 calls)
     v_of_rho     :      0.03s CPU      0.03s WALL (       4 calls)
     mix_rho      :      0.00s CPU      0.00s WALL (       4 calls)

     Called by c_bands:
     init_us_2    :      0.01s CPU      0.01s WALL (      66 calls)
     cegterg      :      0.16s CPU      0.16s WALL (      24 calls)

     Called by *egterg:
     cdiaghg      :      0.01s CPU      0.03s WALL (      87 calls)
     h_psi        :      0.18s CPU      0.16s WALL (      99 calls)
     g_psi        :      0.00s CPU      0.00s WALL (      69 calls)

     Called by h_psi:
     h_psi:calbec :      0.01s CPU      0.01s WALL (      99 calls)
     vloc_psi     :      0.15s CPU      0.15s WALL (      99 calls)
                                        0.00s GPU  (      99 calls)
     add_vuspsi   :      0.01s CPU      0.00s WALL (      99 calls)

     General routines
     calbec       :      0.03s CPU      0.01s WALL (     201 calls)
     fft          :      0.02s CPU      0.02s WALL (      65 calls)
     ffts         :      0.00s CPU      0.00s WALL (       4 calls)
     fftw         :      0.15s CPU      0.15s WALL (    1016 calls)

     Parallel routines

     PWSCF        :      0.42s CPU      0.42s WALL


   This run was terminated on:  19:12:11  25Jan2026            

=------------------------------------------------------------------------------=
   JOB DONE.
=------------------------------------------------------------------------------=
