
     Program PWSCF v.7.5 starts on 25Jan2026 at 19:27:42 

     This program is part of the open-source Quantum ESPRESSO suite
     for quantum simulation of materials; please cite
         "P. Giannozzi et al., J. Phys.:Condens. Matter 21 395502 (2009);
         "P. Giannozzi et al., J. Phys.:Condens. Matter 29 465901 (2017);
         "P. Giannozzi et al., J. Chem. Phys. 152 154105 (2020);
          URL http://www.quantum-espresso.org", 
     in publications or presentations arising from this work. More details at
     http://www.quantum-espresso.org/quote

     Parallel version (MPI), running on     1 processors

     MPI processes distributed on     1 nodes
     0 MiB available memory on the printing compute node when the environment starts

     Waiting for input...
     Reading input from standard input
     Message from routine read_cards :
     DEPRECATED: no units specified in ATOMIC_POSITIONS card
     Message from routine read_cards :
     ATOMIC_POSITIONS: units set to alat

     Current dimensions of program PWSCF are:
     Max number of different atomic species (ntypx) = 10
     Max number of k-points (npk) =  40000
     Max angular momentum in pseudopotentials (lmaxx) =  4
     file Li.pbe-mt_fhi.UPF: wavefunction(s)  2p 4f renormalized

     Subspace diagonalization in iterative solution of the eigenvalue problem:
     a serial algorithm will be used


     G-vector sticks info
     --------------------
     sticks:   dense  smooth     PW     G-vecs:    dense   smooth      PW
     Sum         159     159     63                 1253     1253     321

     Using Slab Decomposition



     bravais-lattice index     =            3
     lattice parameter (alat)  =       6.6000  a.u.
     unit-cell volume          =     143.7480 (a.u.)^3
     number of atoms/cell      =            1
     number of atomic types    =            1
     number of electrons       =         1.00
     number of Kohn-Sham states=            5
     kinetic-energy cutoff     =      16.0000  Ry
     charge density cutoff     =      64.0000  Ry
     scf convergence threshold =      1.0E-08
     mixing beta               =       0.7000
     number of iterations used =            8  plain     mixing
     Exchange-correlation= PBE
                           (   1   4   3   4   0   0   0)

     celldm(1)=   6.600000  celldm(2)=   0.000000  celldm(3)=   0.000000
     celldm(4)=   0.000000  celldm(5)=   0.000000  celldm(6)=   0.000000

     crystal axes: (cart. coord. in units of alat)
               a(1) = (   0.500000   0.500000   0.500000 )  
               a(2) = (  -0.500000   0.500000   0.500000 )  
               a(3) = (  -0.500000  -0.500000   0.500000 )  

     reciprocal axes: (cart. coord. in units 2 pi/alat)
               b(1) = (  1.000000  0.000000  1.000000 )  
               b(2) = ( -1.000000  1.000000  0.000000 )  
               b(3) = (  0.000000 -1.000000  1.000000 )  


     PseudoPot. # 1 for Li read from file:
     ./pseudopot/Li.pbe-mt_fhi.UPF
     MD5 check sum: 3419f5616d131090147e867976aae79b
     Pseudo is Norm-conserving + core correction, Zval =  1.0
     Generated using FHI98PP, converted with fhi2upf.x v.5.0.2
     Using radial grid of  433 points,  3 beta functions with: 
                l(1) =   0
                l(2) =   1
                l(3) =   3

     atomic species   valence    mass     pseudopotential
     Li                1.00     6.94000     Li( 1.00)

     48 Sym. Ops., with inversion, found



   Cartesian axes

     site n.     atom                  positions (alat units)
         1        Li     tau(   1) = (   0.0000000   0.0000000   0.0000000  )

     number of k points=    26  Methfessel-Paxton smearing, width (Ry)=  0.0100
                       cart. coord. in units 2pi/alat
        k(    1) = (   0.0000000   0.0000000   0.1250000), wk =   0.0234375
        k(    2) = (   0.0000000  -0.1250000   0.2500000), wk =   0.0937500
        k(    3) = (   0.0000000  -0.2500000   0.3750000), wk =   0.0937500
        k(    4) = (   0.0000000  -0.3750000   0.5000000), wk =   0.0937500
        k(    5) = (  -0.1250000   0.1250000   0.1250000), wk =   0.0312500
        k(    6) = (  -0.1250000  -0.1250000   0.3750000), wk =   0.0937500
        k(    7) = (  -0.1250000  -0.2500000   0.5000000), wk =   0.1875000
        k(    8) = (  -0.1250000   0.6250000  -0.3750000), wk =   0.0937500
        k(    9) = (  -0.2500000   0.2500000   0.1250000), wk =   0.0937500
        k(   10) = (  -0.2500000   0.7500000  -0.3750000), wk =   0.0937500
        k(   11) = (  -0.3750000   0.3750000   0.1250000), wk =   0.0937500
        k(   12) = (  -0.3750000   0.2500000   0.2500000), wk =   0.0937500
        k(   13) = (   0.5000000  -0.5000000   0.1250000), wk =   0.0468750
        k(   14) = (   0.5000000  -0.6250000   0.2500000), wk =   0.1875000
        k(   15) = (   0.3750000  -0.6250000   0.3750000), wk =   0.0312500
        k(   16) = (   0.0000000   0.0000000   0.3750000), wk =   0.0234375
        k(   17) = (   0.0000000  -0.1250000   0.5000000), wk =   0.0937500
        k(   18) = (   0.0000000  -0.2500000   0.6250000), wk =   0.0937500
        k(   19) = (  -0.1250000  -0.1250000   0.6250000), wk =   0.0937500
        k(   20) = (  -0.1250000   0.7500000  -0.2500000), wk =   0.0937500
        k(   21) = (   0.6250000  -0.6250000   0.3750000), wk =   0.0312500
        k(   22) = (   0.5000000  -0.5000000   0.3750000), wk =   0.0468750
        k(   23) = (   0.0000000   0.0000000   0.6250000), wk =   0.0234375
        k(   24) = (   0.0000000  -0.1250000   0.7500000), wk =   0.0937500
        k(   25) = (  -0.1250000   0.8750000  -0.1250000), wk =   0.0312500
        k(   26) = (   0.0000000   0.0000000   0.8750000), wk =   0.0234375

     Dense  grid:     1253 G-vectors     FFT dimensions: (  15,  15,  15)

     Estimated max dynamical RAM per process >       1.41 MB

     Initial potential from superposition of free atoms

     starting charge       0.9960, renormalised to       1.0000
     Starting wfcs are   16 randomized atomic wfcs

     total cpu time spent up to now is        0.0 secs

     Self-consistent Calculation

     iteration #  1     ecut=    16.00 Ry     beta= 0.70
     Davidson diagonalization with overlap
     ethr =  1.00E-02,  avg # of iterations =  4.3
     Minimization algorithm failed to find Fermi energy: reverting to bisection
     Possible cause: smearing is larger than the electronic band-gap.

     Threshold (ethr) on eigenvalues was too large:
     Diagonalizing with lowered threshold

     Davidson diagonalization with overlap
     ethr =  1.92E-05,  avg # of iterations =  3.6

     total cpu time spent up to now is        0.1 secs

     total energy              =      -0.69530427 Ry
     estimated scf accuracy    <       0.00019028 Ry

     iteration #  2     ecut=    16.00 Ry     beta= 0.70
     Davidson diagonalization with overlap
     ethr =  1.90E-05,  avg # of iterations =  1.0

     total cpu time spent up to now is        0.1 secs

     total energy              =      -0.69530396 Ry
     estimated scf accuracy    <       0.00001715 Ry

     iteration #  3     ecut=    16.00 Ry     beta= 0.70
     Davidson diagonalization with overlap
     ethr =  1.72E-06,  avg # of iterations =  1.4

     total cpu time spent up to now is        0.2 secs

     End of self-consistent calculation

          k = 0.0000 0.0000 0.1250 (   149 PWs)   bands (ev):

    -3.0090  13.6763  13.6763  14.0717  17.3755

          k = 0.0000-0.1250 0.2500 (   157 PWs)   bands (ev):

    -2.4199  10.6714  12.0032  13.3596  15.8218

          k = 0.0000-0.2500 0.3750 (   159 PWs)   bands (ev):

    -1.2553   6.9830  10.6408  12.4174  15.1483

          k = 0.0000-0.3750 0.5000 (   157 PWs)   bands (ev):

     0.2981   4.0801   9.9314  11.8448  14.3958

          k =-0.1250 0.1250 0.1250 (   156 PWs)   bands (ev):

    -2.7153  12.4357  12.6602  12.6602  17.1229

          k =-0.1250-0.1250 0.3750 (   155 PWs)   bands (ev):

    -1.5351   8.5930   9.5132  12.6602  15.0072

          k =-0.1250-0.2500 0.5000 (   159 PWs)   bands (ev):

    -0.0979   5.4959   8.3115  11.9482  15.3399

          k =-0.1250 0.6250-0.3750 (   158 PWs)   bands (ev):

     1.1973   3.5600   7.9595  11.6577  15.5294

          k =-0.2500 0.2500 0.1250 (   159 PWs)   bands (ev):

    -1.8352   8.8155  11.1191  11.1540  16.8202

          k =-0.2500 0.7500-0.3750 (   153 PWs)   bands (ev):

     1.5688   3.8303   6.5266  11.7365  16.1609

          k =-0.3750 0.3750 0.1250 (   154 PWs)   bands (ev):

    -0.4136   5.3952  10.1352  10.2342  16.1718

          k =-0.3750 0.2500 0.2500 (   159 PWs)   bands (ev):

    -0.6663   6.8277   8.1906  10.1785  18.3546

          k = 0.5000-0.5000 0.1250 (   158 PWs)   bands (ev):

     0.8217   3.4748   9.7844   9.9249  15.8864

          k = 0.5000-0.6250 0.2500 (   154 PWs)   bands (ev):

     0.9676   4.1686   7.2104   9.6798  18.4329

          k = 0.3750-0.6250 0.3750 (   152 PWs)   bands (ev):

     2.7141   2.7141   5.9461   9.4918  19.8897

          k = 0.0000 0.0000 0.3750 (   160 PWs)   bands (ev):

    -1.8222  10.1913  10.1913  12.7587  12.8188

          k = 0.0000-0.1250 0.5000 (   159 PWs)   bands (ev):

    -0.6356   7.3038   8.7808  11.8917  13.0578

          k = 0.0000-0.2500 0.6250 (   152 PWs)   bands (ev):

     0.9904   4.4312   8.0574  11.4977  14.4423

          k =-0.1250-0.1250 0.6250 (   153 PWs)   bands (ev):

     0.8389   5.6373   7.0598  12.1433  12.6140

          k =-0.1250 0.7500-0.2500 (   150 PWs)   bands (ev):

     2.3187   3.8274   6.5323  12.1777  13.8524

          k = 0.6250-0.6250 0.3750 (   156 PWs)   bands (ev):

     0.7841   5.7280   5.7280   8.7893  20.6645

          k = 0.5000-0.5000 0.3750 (   152 PWs)   bands (ev):

     2.3390   3.6277   5.3582   8.4982  21.4791

          k = 0.0000 0.0000 0.6250 (   152 PWs)   bands (ev):

     0.5943   7.3565   7.3565   9.6790  12.1768

          k = 0.0000-0.1250 0.7500 (   153 PWs)   bands (ev):

     2.3382   5.2002   6.6231   9.9508  12.2065

          k =-0.1250 0.8750-0.1250 (   146 PWs)   bands (ev):

     4.1385   4.1385   5.8746  10.6504  10.6504

          k = 0.0000 0.0000 0.8750 (   156 PWs)   bands (ev):

     4.2107   5.8891   5.8891   8.1388   9.6698

     the Fermi energy is     0.3585 ev

!    total energy              =      -0.69530407 Ry
     estimated scf accuracy    <          1.3E-09 Ry
     smearing contrib. (-TS)   =      -0.00005750 Ry
     internal energy E=F+TS    =      -0.69524657 Ry

     The total energy is F=E-TS. E is the sum of the following terms:
     one-electron contribution =       0.39733373 Ry
     hartree contribution      =       0.00097151 Ry
     xc contribution           =      -0.54215273 Ry
     ewald contribution        =      -0.55139908 Ry

     convergence has been achieved in   3 iterations

     Forces acting on atoms (cartesian axes, Ry/au):

     atom    1 type  1   force =     0.00000000    0.00000000    0.00000000

     Total force =     0.000000     Total SCF correction =     0.000000


     Computing stress (Cartesian axis) and pressure

          total   stress  (Ry/bohr**3)                   (kbar)     P=      -10.70
  -0.00007274   0.00000000  -0.00000000          -10.70        0.00       -0.00
   0.00000000  -0.00007274   0.00000000            0.00      -10.70        0.00
  -0.00000000   0.00000000  -0.00007274           -0.00        0.00      -10.70


     Writing all to output data dir ./QE-outdir/li.save/ :
     XML data file, charge density, pseudopotentials, collected wavefunctions

     init_run     :      0.03s CPU      0.03s WALL (       1 calls)
     electrons    :      0.07s CPU      0.13s WALL (       1 calls)
     forces       :      0.00s CPU      0.00s WALL (       1 calls)
     stress       :      0.01s CPU      0.01s WALL (       1 calls)

     Called by init_run:
     wfcinit      :      0.02s CPU      0.02s WALL (       1 calls)
     potinit      :      0.00s CPU      0.00s WALL (       1 calls)
     hinit0       :      0.01s CPU      0.01s WALL (       1 calls)

     Called by electrons:
     c_bands      :      0.07s CPU      0.12s WALL (       4 calls)
     sum_band     :      0.01s CPU      0.01s WALL (       4 calls)
     v_of_rho     :      0.00s CPU      0.00s WALL (       4 calls)
     mix_rho      :      0.00s CPU      0.00s WALL (       4 calls)

     Called by c_bands:
     init_us_2    :      0.00s CPU      0.00s WALL (     286 calls)
     cegterg      :      0.06s CPU      0.12s WALL (     104 calls)

     Called by *egterg:
     cdiaghg      :      0.04s CPU      0.10s WALL (     346 calls)
     h_psi        :      0.03s CPU      0.03s WALL (     398 calls)
     g_psi        :      0.00s CPU      0.00s WALL (     268 calls)

     Called by h_psi:
     h_psi:calbec :      0.00s CPU      0.00s WALL (     398 calls)
     vloc_psi     :      0.03s CPU      0.03s WALL (     398 calls)
                                        0.00s GPU  (     398 calls)
     add_vuspsi   :      0.00s CPU      0.00s WALL (     398 calls)

     General routines
     calbec       :      0.00s CPU      0.00s WALL (     840 calls)
     fft          :      0.00s CPU      0.00s WALL (      65 calls)
     ffts         :      0.00s CPU      0.00s WALL (       4 calls)
     fftw         :      0.03s CPU      0.03s WALL (    4292 calls)

     Parallel routines

     PWSCF        :      0.12s CPU      0.19s WALL


   This run was terminated on:  19:27:42  25Jan2026            

=------------------------------------------------------------------------------=
   JOB DONE.
=------------------------------------------------------------------------------=
