
     Program PWSCF v.7.5 starts on 27Jan2026 at 16:36:43 

     This program is part of the open-source Quantum ESPRESSO suite
     for quantum simulation of materials; please cite
         "P. Giannozzi et al., J. Phys.:Condens. Matter 21 395502 (2009);
         "P. Giannozzi et al., J. Phys.:Condens. Matter 29 465901 (2017);
         "P. Giannozzi et al., J. Chem. Phys. 152 154105 (2020);
          URL http://www.quantum-espresso.org", 
     in publications or presentations arising from this work. More details at
     http://www.quantum-espresso.org/quote

     Parallel version (MPI), running on     1 processors

     MPI processes distributed on     1 nodes
     0 MiB available memory on the printing compute node when the environment starts

     Waiting for input...
     Reading input from standard input
     Message from routine read_cards :
     DEPRECATED: no units specified in ATOMIC_POSITIONS card
     Message from routine read_cards :
     ATOMIC_POSITIONS: units set to alat

     Current dimensions of program PWSCF are:
     Max number of different atomic species (ntypx) = 10
     Max number of k-points (npk) =  40000
     Max angular momentum in pseudopotentials (lmaxx) =  4
     file Li.pbe-mt_fhi.UPF: wavefunction(s)  2p 4f renormalized

     Atomic positions and unit cell read from directory:
     ./QE-outdir/li.save/


     Subspace diagonalization in iterative solution of the eigenvalue problem:
     a serial algorithm will be used


     G-vector sticks info
     --------------------
     sticks:   dense  smooth     PW     G-vecs:    dense   smooth      PW
     Sum         181     181     67                 1553     1553     369

     Using Slab Decomposition



     bravais-lattice index     =            3
     lattice parameter (alat)  =       6.4319  a.u.
     unit-cell volume          =     133.0417 (a.u.)^3
     number of atoms/cell      =            1
     number of atomic types    =            1
     number of electrons       =         1.00
     number of Kohn-Sham states=            5
     kinetic-energy cutoff     =      20.0000  Ry
     charge density cutoff     =      80.0000  Ry
     Exchange-correlation= PBE
                           (   1   4   3   4   0   0   0)

     celldm(1)=   6.431900  celldm(2)=   0.000000  celldm(3)=   0.000000
     celldm(4)=   0.000000  celldm(5)=   0.000000  celldm(6)=   0.000000

     crystal axes: (cart. coord. in units of alat)
               a(1) = (   0.500000   0.500000   0.500000 )  
               a(2) = (  -0.500000   0.500000   0.500000 )  
               a(3) = (  -0.500000  -0.500000   0.500000 )  

     reciprocal axes: (cart. coord. in units 2 pi/alat)
               b(1) = (  1.000000  0.000000  1.000000 )  
               b(2) = ( -1.000000  1.000000  0.000000 )  
               b(3) = (  0.000000 -1.000000  1.000000 )  


     PseudoPot. # 1 for Li read from file:
     ./pseudopot/Li.pbe-mt_fhi.UPF
     MD5 check sum: 3419f5616d131090147e867976aae79b
     Pseudo is Norm-conserving + core correction, Zval =  1.0
     Generated using FHI98PP, converted with fhi2upf.x v.5.0.2
     Using radial grid of  433 points,  3 beta functions with: 
                l(1) =   0
                l(2) =   1
                l(3) =   3

     atomic species   valence    mass     pseudopotential
     Li                1.00     6.94000     Li( 1.00)

     48 Sym. Ops., with inversion, found



   Cartesian axes

     site n.     atom                  positions (alat units)
         1        Li     tau(   1) = (   0.0000000   0.0000000   0.0000000  )

     number of k points=    68  Methfessel-Paxton smearing, width (Ry)=  0.0100
                       cart. coord. in units 2pi/alat
        k(    1) = (   0.0000000   0.0000000   0.0833333), wk =   0.0069444
        k(    2) = (   0.0000000  -0.0833333   0.1666667), wk =   0.0277778
        k(    3) = (   0.0000000  -0.1666667   0.2500000), wk =   0.0277778
        k(    4) = (   0.0000000  -0.2500000   0.3333333), wk =   0.0277778
        k(    5) = (   0.0000000  -0.3333333   0.4166667), wk =   0.0277778
        k(    6) = (   0.0000000  -0.4166667   0.5000000), wk =   0.0277778
        k(    7) = (  -0.0833333   0.0833333   0.0833333), wk =   0.0092593
        k(    8) = (  -0.0833333  -0.0833333   0.2500000), wk =   0.0277778
        k(    9) = (  -0.0833333  -0.1666667   0.3333333), wk =   0.0555556
        k(   10) = (  -0.0833333  -0.2500000   0.4166667), wk =   0.0555556
        k(   11) = (  -0.0833333  -0.3333333   0.5000000), wk =   0.0555556
        k(   12) = (  -0.0833333   0.5833333  -0.4166667), wk =   0.0277778
        k(   13) = (  -0.1666667   0.1666667   0.0833333), wk =   0.0277778
        k(   14) = (  -0.1666667  -0.1666667   0.4166667), wk =   0.0277778
        k(   15) = (  -0.1666667  -0.2500000   0.5000000), wk =   0.0555556
        k(   16) = (  -0.1666667   0.6666667  -0.4166667), wk =   0.0555556
        k(   17) = (  -0.2500000   0.2500000   0.0833333), wk =   0.0277778
        k(   18) = (  -0.2500000   0.1666667   0.1666667), wk =   0.0277778
        k(   19) = (  -0.2500000   0.7500000  -0.4166667), wk =   0.0277778
        k(   20) = (  -0.2500000   0.6666667  -0.3333333), wk =   0.0277778
        k(   21) = (  -0.3333333   0.3333333   0.0833333), wk =   0.0277778
        k(   22) = (  -0.3333333   0.2500000   0.1666667), wk =   0.0555556
        k(   23) = (  -0.4166667   0.4166667   0.0833333), wk =   0.0277778
        k(   24) = (  -0.4166667   0.3333333   0.1666667), wk =   0.0555556
        k(   25) = (  -0.4166667   0.2500000   0.2500000), wk =   0.0277778
        k(   26) = (   0.5000000  -0.5000000   0.0833333), wk =   0.0138889
        k(   27) = (   0.5000000  -0.5833333   0.1666667), wk =   0.0555556
        k(   28) = (   0.5000000  -0.6666667   0.2500000), wk =   0.0555556
        k(   29) = (   0.4166667  -0.5833333   0.2500000), wk =   0.0277778
        k(   30) = (   0.4166667  -0.6666667   0.3333333), wk =   0.0277778
        k(   31) = (   0.0000000   0.0000000   0.2500000), wk =   0.0069444
        k(   32) = (   0.0000000  -0.0833333   0.3333333), wk =   0.0277778
        k(   33) = (   0.0000000  -0.1666667   0.4166667), wk =   0.0277778
        k(   34) = (   0.0000000  -0.2500000   0.5000000), wk =   0.0277778
        k(   35) = (   0.0000000  -0.3333333   0.5833333), wk =   0.0277778
        k(   36) = (  -0.0833333  -0.0833333   0.4166667), wk =   0.0277778
        k(   37) = (  -0.0833333  -0.1666667   0.5000000), wk =   0.0555556
        k(   38) = (  -0.0833333  -0.2500000   0.5833333), wk =   0.0555556
        k(   39) = (  -0.0833333   0.6666667  -0.3333333), wk =   0.0277778
        k(   40) = (  -0.1666667  -0.1666667   0.5833333), wk =   0.0277778
        k(   41) = (  -0.1666667   0.7500000  -0.3333333), wk =   0.0555556
        k(   42) = (  -0.2500000   0.2500000   0.2500000), wk =   0.0092593
        k(   43) = (  -0.2500000   0.7500000  -0.2500000), wk =   0.0092593
        k(   44) = (  -0.3333333   0.3333333   0.2500000), wk =   0.0277778
        k(   45) = (   0.5833333  -0.5833333   0.2500000), wk =   0.0277778
        k(   46) = (   0.5833333  -0.6666667   0.3333333), wk =   0.0277778
        k(   47) = (   0.5000000  -0.5000000   0.2500000), wk =   0.0138889
        k(   48) = (   0.5000000  -0.5833333   0.3333333), wk =   0.0555556
        k(   49) = (   0.4166667  -0.5833333   0.4166667), wk =   0.0092593
        k(   50) = (   0.0000000   0.0000000   0.4166667), wk =   0.0069444
        k(   51) = (   0.0000000  -0.0833333   0.5000000), wk =   0.0277778
        k(   52) = (   0.0000000  -0.1666667   0.5833333), wk =   0.0277778
        k(   53) = (   0.0000000  -0.2500000   0.6666667), wk =   0.0277778
        k(   54) = (  -0.0833333  -0.0833333   0.5833333), wk =   0.0277778
        k(   55) = (  -0.0833333  -0.1666667   0.6666667), wk =   0.0555556
        k(   56) = (  -0.0833333   0.7500000  -0.2500000), wk =   0.0277778
        k(   57) = (  -0.1666667   0.8333333  -0.2500000), wk =   0.0277778
        k(   58) = (   0.5833333  -0.5833333   0.4166667), wk =   0.0092593
        k(   59) = (   0.5000000  -0.5000000   0.4166667), wk =   0.0138889
        k(   60) = (   0.0000000   0.0000000   0.5833333), wk =   0.0069444
        k(   61) = (   0.0000000  -0.0833333   0.6666667), wk =   0.0277778
        k(   62) = (   0.0000000  -0.1666667   0.7500000), wk =   0.0277778
        k(   63) = (  -0.0833333  -0.0833333   0.7500000), wk =   0.0277778
        k(   64) = (  -0.0833333   0.8333333  -0.1666667), wk =   0.0277778
        k(   65) = (   0.0000000   0.0000000   0.7500000), wk =   0.0069444
        k(   66) = (   0.0000000  -0.0833333   0.8333333), wk =   0.0277778
        k(   67) = (  -0.0833333   0.9166667  -0.0833333), wk =   0.0092593
        k(   68) = (   0.0000000   0.0000000   0.9166667), wk =   0.0069444

     Dense  grid:     1553 G-vectors     FFT dimensions: (  15,  15,  15)

     Estimated max dynamical RAM per process >       0.85 MB

     The potential is recalculated from file :
     ./QE-outdir/li.save/charge-density

     Starting wfcs are   16 randomized atomic wfcs

     Band Structure Calculation
     Davidson diagonalization with overlap

     ethr =  1.00E-09,  avg # of iterations = 21.0

     total cpu time spent up to now is        0.6 secs

     End of band structure calculation

          k = 0.0000 0.0000 0.0833 (   201 PWs)   bands (ev):

    -2.9970  15.0088  15.0088  15.2075  19.3846

          k = 0.0000-0.0833 0.1667 (   202 PWs)   bands (ev):

    -2.7274  13.3577  13.9597  14.8012  17.6890

          k = 0.0000-0.1667 0.2500 (   198 PWs)   bands (ev):

    -2.1888  10.7464  12.7958  14.1333  16.9786

          k = 0.0000-0.2500 0.3333 (   197 PWs)   bands (ev):

    -1.3884   8.1375  11.8429  13.4347  15.9223

          k = 0.0000-0.3333 0.4167 (   196 PWs)   bands (ev):

    -0.3664   5.8531  11.1864  12.9021  15.2132

          k = 0.0000-0.4167 0.5000 (   197 PWs)   bands (ev):

     0.6467   4.1975  10.8535  12.6209  14.8577

          k =-0.0833 0.0833 0.0833 (   198 PWs)   bands (ev):

    -2.8624  14.2154  14.6011  14.6011  18.4881

          k =-0.0833-0.0833 0.2500 (   200 PWs)   bands (ev):

    -2.3222  11.9409  12.2675  14.2069  16.8018

          k =-0.0833-0.1667 0.3333 (   198 PWs)   bands (ev):

    -1.6486   9.4454  11.1354  13.4866  16.6112

          k =-0.0833-0.2500 0.4167 (   198 PWs)   bands (ev):

    -0.7219   7.0054  10.3517  12.8300  16.5459

          k =-0.0833-0.3333 0.5000 (   198 PWs)   bands (ev):

     0.3713   4.9695   9.8747  12.3971  16.2968

          k =-0.0833 0.5833-0.4167 (   197 PWs)   bands (ev):

     1.0737   3.9488   9.7144  12.2481  16.1841

          k =-0.1667 0.1667 0.0833 (   199 PWs)   bands (ev):

    -2.4585  12.1304  13.2179  13.6802  17.8418

          k =-0.1667-0.1667 0.4167 (   202 PWs)   bands (ev):

    -0.8411   7.8866   9.3945  12.9104  16.5963

          k =-0.1667-0.2500 0.5000 (   199 PWs)   bands (ev):

     0.2073   5.9058   8.5318  12.4498  16.8821

          k =-0.1667 0.6667-0.4167 (   200 PWs)   bands (ev):

     1.3104   4.2454   8.1680  12.1956  17.0660

          k =-0.2500 0.2500 0.0833 (   198 PWs)   bands (ev):

    -1.7876   9.4304  12.2351  12.7230  17.1244

          k =-0.2500 0.1667 0.1667 (   201 PWs)   bands (ev):

    -1.9204  10.6150  11.3157  12.4578  18.2890

          k =-0.2500 0.7500-0.4167 (   201 PWs)   bands (ev):

     1.3642   4.5973   7.3835  12.2101  17.5401

          k =-0.2500 0.6667-0.3333 (   203 PWs)   bands (ev):

     2.3110   3.5470   7.0433  12.1237  18.0039

          k =-0.3333 0.3333 0.0833 (   197 PWs)   bands (ev):

    -0.8660   6.9497  11.4955  11.9655  16.4500

          k =-0.3333 0.2500 0.1667 (   197 PWs)   bands (ev):

    -1.1171   8.1920  10.2373  11.6767  18.3091

          k =-0.4167 0.4167 0.0833 (   195 PWs)   bands (ev):

     0.2148   4.9089  11.0398  11.4921  16.0023

          k =-0.4167 0.3333 0.1667 (   196 PWs)   bands (ev):

    -0.0806   5.9227   9.5907  11.1379  18.0577

          k =-0.4167 0.2500 0.2500 (   195 PWs)   bands (ev):

    -0.1836   6.7057   8.5232  11.1276  19.1923

          k = 0.5000-0.5000 0.0833 (   192 PWs)   bands (ev):

     0.8976   3.9031  10.8864  11.3320  15.8479

          k = 0.5000-0.5833 0.1667 (   198 PWs)   bands (ev):

     0.9807   4.2285   9.2673  10.8633  17.8692

          k = 0.5000-0.6667 0.2500 (   203 PWs)   bands (ev):

     0.9586   4.9219   7.7609  10.7888  19.3336

          k = 0.4167-0.5833 0.2500 (   204 PWs)   bands (ev):

     1.7844   3.8367   7.5475  10.6741  19.3329

          k = 0.4167-0.6667 0.3333 (   206 PWs)   bands (ev):

     2.1877   3.7282   6.8074  10.6106  20.5671

          k = 0.0000 0.0000 0.2500 (   201 PWs)   bands (ev):

    -2.4558  12.7947  12.7947  14.3449  15.7869

          k = 0.0000-0.0833 0.3333 (   204 PWs)   bands (ev):

    -1.9129  10.7620  11.5683  13.8988  14.9987

          k = 0.0000-0.1667 0.4167 (   199 PWs)   bands (ev):

    -1.1046   8.2713  10.5850  13.2867  15.3472

          k = 0.0000-0.2500 0.5000 (   198 PWs)   bands (ev):

    -0.0666   6.0098   9.9136  12.8014  16.0640

          k = 0.0000-0.3333 0.5833 (   203 PWs)   bands (ev):

     0.9837   4.3308   9.5739  12.5451  16.7462

          k =-0.0833-0.0833 0.4167 (   199 PWs)   bands (ev):

    -1.2316   9.3073  10.0270  13.7008  14.2340

          k =-0.0833-0.1667 0.5000 (   202 PWs)   bands (ev):

    -0.2907   7.1578   9.0960  13.2425  14.6590

          k =-0.0833-0.2500 0.5833 (   204 PWs)   bands (ev):

     0.8375   5.1623   8.5940  12.8613  15.4886

          k =-0.0833 0.6667-0.3333 (   204 PWs)   bands (ev):

     1.6010   4.0987   8.4288  12.7282  15.9860

          k =-0.1667-0.1667 0.5833 (   202 PWs)   bands (ev):

     0.7750   5.7941   7.8187  13.4141  14.6419

          k =-0.1667 0.7500-0.3333 (   206 PWs)   bands (ev):

     1.9555   4.2917   7.2922  13.3061  15.4101

          k =-0.2500 0.2500 0.2500 (   192 PWs)   bands (ev):

    -1.2490   9.4763   9.4763  10.9858  19.3799

          k =-0.2500 0.7500-0.2500 (   206 PWs)   bands (ev):

     3.1835   3.1835   6.7904  13.5034  16.2238

          k =-0.3333 0.3333 0.2500 (   194 PWs)   bands (ev):

    -0.3156   7.1083   8.6364  10.3715  19.9589

          k = 0.5833-0.5833 0.2500 (   198 PWs)   bands (ev):

     0.8177   5.0516   8.1258  10.0293  20.1106

          k = 0.5833-0.6667 0.3333 (   198 PWs)   bands (ev):

     0.7460   5.8449   7.1071   9.8617  21.1192

          k = 0.5000-0.5000 0.2500 (   202 PWs)   bands (ev):

     1.6085   3.9471   7.9547   9.9163  20.1085

          k = 0.5000-0.5833 0.3333 (   201 PWs)   bands (ev):

     1.9491   4.2614   6.5642   9.6447  21.6243

          k = 0.4167-0.5833 0.4167 (   204 PWs)   bands (ev):

     3.2034   3.2034   5.9310   9.5385  22.2926

          k = 0.0000 0.0000 0.4167 (   205 PWs)   bands (ev):

    -1.3611  10.3123  10.3123  12.9052  13.6144

          k = 0.0000-0.0833 0.5000 (   202 PWs)   bands (ev):

    -0.5379   8.4875   9.3152  12.3986  13.5593

          k = 0.0000-0.1667 0.5833 (   203 PWs)   bands (ev):

     0.5290   6.3383   8.6367  12.2804  14.1634

          k = 0.0000-0.2500 0.6667 (   206 PWs)   bands (ev):

     1.6516   4.6267   8.2938  12.1720  15.2365

          k =-0.0833-0.0833 0.5833 (   201 PWs)   bands (ev):

     0.4240   7.2474   8.1646  12.1535  13.4256

          k =-0.0833-0.1667 0.6667 (   204 PWs)   bands (ev):

     1.6017   5.4953   7.5517  12.3662  13.8878

          k =-0.0833 0.7500-0.2500 (   206 PWs)   bands (ev):

     2.4749   4.3767   7.3717  12.3993  14.8859

          k =-0.1667 0.8333-0.2500 (   205 PWs)   bands (ev):

     2.8569   4.3870   6.7692  13.2680  13.8249

          k = 0.5833-0.5833 0.4167 (   198 PWs)   bands (ev):

     1.9372   5.3243   5.3243   9.3434  22.9385

          k = 0.5000-0.5000 0.4167 (   202 PWs)   bands (ev):

     3.0280   3.9945   5.1503   9.2056  23.4781

          k = 0.0000 0.0000 0.5833 (   204 PWs)   bands (ev):

     0.3076   8.3110   8.3110  10.7432  13.2312

          k = 0.0000-0.0833 0.6667 (   206 PWs)   bands (ev):

     1.4120   6.8063   7.6285  10.6860  13.2174

          k = 0.0000-0.1667 0.7500 (   210 PWs)   bands (ev):

     2.6342   5.1228   7.2844  11.1169  13.6478

          k =-0.0833-0.0833 0.7500 (   210 PWs)   bands (ev):

     2.6384   5.8543   6.8753  10.7442  12.9283

          k =-0.0833 0.8333-0.1667 (   211 PWs)   bands (ev):

     3.6808   4.7734   6.6256  11.2480  12.5712

          k = 0.0000 0.0000 0.7500 (   212 PWs)   bands (ev):

     2.5624   6.9441   6.9441   9.3017  12.5194

          k = 0.0000-0.0833 0.8333 (   208 PWs)   bands (ev):

     3.8892   5.8087   6.5998   9.6013  11.4471

          k =-0.0833 0.9167-0.0833 (   212 PWs)   bands (ev):

     5.1538   5.1538   6.2726  10.0361  10.0361

          k = 0.0000 0.0000 0.9167 (   212 PWs)   bands (ev):

     5.2814   6.2546   6.2546   8.5809   9.5000

     the Fermi energy is     0.6349 ev
     (compare with:     0.6233 eV, computed in scf)

     Writing all to output data dir ./QE-outdir/li.save/ :
     XML data file, pseudopotentials, collected wavefunctions

     init_run     :      0.01s CPU      0.01s WALL (       1 calls)
     electrons    :      0.31s CPU      0.58s WALL (       1 calls)

     Called by init_run:
     wfcinit      :      0.00s CPU      0.00s WALL (       1 calls)
     potinit      :      0.00s CPU      0.00s WALL (       1 calls)
     hinit0       :      0.01s CPU      0.01s WALL (       1 calls)

     Called by electrons:
     c_bands      :      0.31s CPU      0.58s WALL (       1 calls)
     v_of_rho     :      0.00s CPU      0.00s WALL (       1 calls)

     Called by c_bands:
     init_us_2    :      0.00s CPU      0.00s WALL (      68 calls)
     cegterg      :      0.27s CPU      0.52s WALL (      98 calls)

     Called by *egterg:
     cdiaghg      :      0.17s CPU      0.43s WALL (    1493 calls)
     h_psi        :      0.10s CPU      0.11s WALL (    1591 calls)
     g_psi        :      0.00s CPU      0.00s WALL (    1425 calls)

     Called by h_psi:
     h_psi:calbec :      0.01s CPU      0.01s WALL (    1591 calls)
     vloc_psi     :      0.09s CPU      0.09s WALL (    1591 calls)
                                        0.00s GPU  (    1591 calls)
     add_vuspsi   :      0.00s CPU      0.00s WALL (    1591 calls)

     General routines
     calbec       :      0.01s CPU      0.01s WALL (    1591 calls)
     fft          :      0.00s CPU      0.00s WALL (      11 calls)
     fftw         :      0.07s CPU      0.08s WALL (   12084 calls)
     davcio       :      0.00s CPU      0.00s WALL (     136 calls)

     Parallel routines

     PWSCF        :      0.34s CPU      0.62s WALL


   This run was terminated on:  16:36:44  27Jan2026            

=------------------------------------------------------------------------------=
   JOB DONE.
=------------------------------------------------------------------------------=
