
     Program PWSCF v.7.5 starts on 27Jan2026 at 16:36:43 

     This program is part of the open-source Quantum ESPRESSO suite
     for quantum simulation of materials; please cite
         "P. Giannozzi et al., J. Phys.:Condens. Matter 21 395502 (2009);
         "P. Giannozzi et al., J. Phys.:Condens. Matter 29 465901 (2017);
         "P. Giannozzi et al., J. Chem. Phys. 152 154105 (2020);
          URL http://www.quantum-espresso.org", 
     in publications or presentations arising from this work. More details at
     http://www.quantum-espresso.org/quote

     Parallel version (MPI), running on     1 processors

     MPI processes distributed on     1 nodes
     0 MiB available memory on the printing compute node when the environment starts

     Waiting for input...
     Reading input from standard input
     Message from routine read_cards :
     DEPRECATED: no units specified in ATOMIC_POSITIONS card
     Message from routine read_cards :
     ATOMIC_POSITIONS: units set to alat

     Current dimensions of program PWSCF are:
     Max number of different atomic species (ntypx) = 10
     Max number of k-points (npk) =  40000
     Max angular momentum in pseudopotentials (lmaxx) =  4
     file Li.pbe-mt_fhi.UPF: wavefunction(s)  2p 4f renormalized

     Atomic positions and unit cell read from directory:
     ./QE-outdir/li.save/


     Subspace diagonalization in iterative solution of the eigenvalue problem:
     a serial algorithm will be used


     G-vector sticks info
     --------------------
     sticks:   dense  smooth     PW     G-vecs:    dense   smooth      PW
     Sum         181     181     67                 1553     1553     369

     Using Slab Decomposition



     bravais-lattice index     =            3
     lattice parameter (alat)  =       6.4319  a.u.
     unit-cell volume          =     133.0417 (a.u.)^3
     number of atoms/cell      =            1
     number of atomic types    =            1
     number of electrons       =         1.00
     number of Kohn-Sham states=            5
     kinetic-energy cutoff     =      20.0000  Ry
     charge density cutoff     =      80.0000  Ry
     Exchange-correlation= PBE
                           (   1   4   3   4   0   0   0)

     celldm(1)=   6.431900  celldm(2)=   0.000000  celldm(3)=   0.000000
     celldm(4)=   0.000000  celldm(5)=   0.000000  celldm(6)=   0.000000

     crystal axes: (cart. coord. in units of alat)
               a(1) = (   0.500000   0.500000   0.500000 )  
               a(2) = (  -0.500000   0.500000   0.500000 )  
               a(3) = (  -0.500000  -0.500000   0.500000 )  

     reciprocal axes: (cart. coord. in units 2 pi/alat)
               b(1) = (  1.000000  0.000000  1.000000 )  
               b(2) = ( -1.000000  1.000000  0.000000 )  
               b(3) = (  0.000000 -1.000000  1.000000 )  


     PseudoPot. # 1 for Li read from file:
     ./pseudopot/Li.pbe-mt_fhi.UPF
     MD5 check sum: 3419f5616d131090147e867976aae79b
     Pseudo is Norm-conserving + core correction, Zval =  1.0
     Generated using FHI98PP, converted with fhi2upf.x v.5.0.2
     Using radial grid of  433 points,  3 beta functions with: 
                l(1) =   0
                l(2) =   1
                l(3) =   3

     atomic species   valence    mass     pseudopotential
     Li                1.00     6.94000     Li( 1.00)

     48 Sym. Ops., with inversion, found



   Cartesian axes

     site n.     atom                  positions (alat units)
         1        Li     tau(   1) = (   0.0000000   0.0000000   0.0000000  )

     number of k points=    44  Methfessel-Paxton smearing, width (Ry)=  0.0100
                       cart. coord. in units 2pi/alat
        k(    1) = (   0.0000000   0.0000000   0.1000000), wk =   0.0120000
        k(    2) = (   0.0000000  -0.1000000   0.2000000), wk =   0.0480000
        k(    3) = (   0.0000000  -0.2000000   0.3000000), wk =   0.0480000
        k(    4) = (   0.0000000  -0.3000000   0.4000000), wk =   0.0480000
        k(    5) = (   0.0000000  -0.4000000   0.5000000), wk =   0.0480000
        k(    6) = (  -0.1000000   0.1000000   0.1000000), wk =   0.0160000
        k(    7) = (  -0.1000000  -0.1000000   0.3000000), wk =   0.0480000
        k(    8) = (  -0.1000000  -0.2000000   0.4000000), wk =   0.0960000
        k(    9) = (  -0.1000000  -0.3000000   0.5000000), wk =   0.0960000
        k(   10) = (  -0.1000000   0.6000000  -0.4000000), wk =   0.0480000
        k(   11) = (  -0.2000000   0.2000000   0.1000000), wk =   0.0480000
        k(   12) = (  -0.2000000  -0.2000000   0.5000000), wk =   0.0480000
        k(   13) = (  -0.2000000   0.7000000  -0.4000000), wk =   0.0960000
        k(   14) = (  -0.3000000   0.3000000   0.1000000), wk =   0.0480000
        k(   15) = (  -0.3000000   0.2000000   0.2000000), wk =   0.0480000
        k(   16) = (  -0.3000000   0.7000000  -0.3000000), wk =   0.0160000
        k(   17) = (  -0.4000000   0.4000000   0.1000000), wk =   0.0480000
        k(   18) = (  -0.4000000   0.3000000   0.2000000), wk =   0.0960000
        k(   19) = (   0.5000000  -0.5000000   0.1000000), wk =   0.0240000
        k(   20) = (   0.5000000  -0.6000000   0.2000000), wk =   0.0960000
        k(   21) = (   0.5000000  -0.7000000   0.3000000), wk =   0.0480000
        k(   22) = (   0.4000000  -0.6000000   0.3000000), wk =   0.0480000
        k(   23) = (   0.0000000   0.0000000   0.3000000), wk =   0.0120000
        k(   24) = (   0.0000000  -0.1000000   0.4000000), wk =   0.0480000
        k(   25) = (   0.0000000  -0.2000000   0.5000000), wk =   0.0480000
        k(   26) = (   0.0000000  -0.3000000   0.6000000), wk =   0.0480000
        k(   27) = (  -0.1000000  -0.1000000   0.5000000), wk =   0.0480000
        k(   28) = (  -0.1000000  -0.2000000   0.6000000), wk =   0.0960000
        k(   29) = (  -0.1000000   0.7000000  -0.3000000), wk =   0.0480000
        k(   30) = (  -0.2000000   0.8000000  -0.3000000), wk =   0.0480000
        k(   31) = (  -0.3000000   0.3000000   0.3000000), wk =   0.0160000
        k(   32) = (   0.6000000  -0.6000000   0.3000000), wk =   0.0480000
        k(   33) = (   0.5000000  -0.5000000   0.3000000), wk =   0.0240000
        k(   34) = (   0.5000000  -0.6000000   0.4000000), wk =   0.0480000
        k(   35) = (   0.0000000   0.0000000   0.5000000), wk =   0.0120000
        k(   36) = (   0.0000000  -0.1000000   0.6000000), wk =   0.0480000
        k(   37) = (   0.0000000  -0.2000000   0.7000000), wk =   0.0480000
        k(   38) = (  -0.1000000  -0.1000000   0.7000000), wk =   0.0480000
        k(   39) = (  -0.1000000   0.8000000  -0.2000000), wk =   0.0480000
        k(   40) = (   0.5000000  -0.5000000   0.5000000), wk =   0.0040000
        k(   41) = (   0.0000000   0.0000000   0.7000000), wk =   0.0120000
        k(   42) = (   0.0000000  -0.1000000   0.8000000), wk =   0.0480000
        k(   43) = (  -0.1000000   0.9000000  -0.1000000), wk =   0.0160000
        k(   44) = (   0.0000000   0.0000000   0.9000000), wk =   0.0120000

     Dense  grid:     1553 G-vectors     FFT dimensions: (  15,  15,  15)

     Estimated max dynamical RAM per process >       0.85 MB

     The potential is recalculated from file :
     ./QE-outdir/li.save/charge-density

     Starting wfcs are   16 randomized atomic wfcs

     Band Structure Calculation
     Davidson diagonalization with overlap

     ethr =  1.00E-09,  avg # of iterations = 20.1

     total cpu time spent up to now is        0.4 secs

     End of band structure calculation

          k = 0.0000 0.0000 0.1000 (   201 PWs)   bands (ev):

    -2.9674  14.8539  14.8539  15.1397  18.9931

          k = 0.0000-0.1000 0.2000 (   202 PWs)   bands (ev):

    -2.5790  12.6060  13.5065  14.5949  17.2875

          k = 0.0000-0.2000 0.3000 (   199 PWs)   bands (ev):

    -1.8048   9.4202  12.1861  13.7623  16.5443

          k = 0.0000-0.3000 0.4000 (   194 PWs)   bands (ev):

    -0.6740   6.5009  11.2482  13.0335  15.5294

          k = 0.0000-0.4000 0.5000 (   197 PWs)   bands (ev):

     0.5845   4.3207  10.7686  12.6342  15.0192

          k =-0.1000 0.1000 0.1000 (   198 PWs)   bands (ev):

    -2.7736  13.8538  14.2090  14.2090  18.2944

          k =-0.1000-0.1000 0.3000 (   203 PWs)   bands (ev):

    -1.9950  10.8263  11.4244  13.8992  16.3976

          k =-0.1000-0.2000 0.4000 (   197 PWs)   bands (ev):

    -1.0288   7.9554  10.1832  13.1101  16.4074

          k =-0.1000-0.3000 0.5000 (   200 PWs)   bands (ev):

     0.2503   5.3561   9.4930  12.5190  16.4773

          k =-0.1000 0.6000-0.4000 (   199 PWs)   bands (ev):

     1.1903   3.9641   9.2626  12.3090  16.4192

          k =-0.2000 0.2000 0.1000 (   199 PWs)   bands (ev):

    -2.1923  11.0572  12.6649  12.9782  17.7828

          k =-0.2000-0.2000 0.5000 (   201 PWs)   bands (ev):

     0.1236   6.2434   8.3170  12.6264  16.6555

          k =-0.2000 0.7000-0.4000 (   204 PWs)   bands (ev):

     1.5085   4.2943   7.5920  12.3288  17.1854

          k =-0.3000 0.3000 0.1000 (   194 PWs)   bands (ev):

    -1.2320   7.9129  11.6567  11.9030  17.0546

          k =-0.3000 0.2000 0.2000 (   198 PWs)   bands (ev):

    -1.4181   9.2402  10.2769  11.7667  18.6422

          k =-0.3000 0.7000-0.3000 (   203 PWs)   bands (ev):

     2.9698   2.9698   6.8475  12.2678  18.4895

          k =-0.4000 0.4000 0.1000 (   199 PWs)   bands (ev):

     0.0310   5.2760  11.0233  11.2162  16.4658

          k =-0.4000 0.3000 0.2000 (   196 PWs)   bands (ev):

    -0.2739   6.5702   9.1334  11.0540  18.7436

          k = 0.5000-0.5000 0.1000 (   198 PWs)   bands (ev):

     0.9367   3.9059  10.8080  10.9828  16.2536

          k = 0.5000-0.6000 0.2000 (   199 PWs)   bands (ev):

     1.0538   4.3614   8.6418  10.6878  18.5951

          k = 0.5000-0.7000 0.3000 (   201 PWs)   bands (ev):

     1.0436   5.0058   7.3954  10.6286  20.1101

          k = 0.4000-0.6000 0.3000 (   204 PWs)   bands (ev):

     2.2132   3.6383   6.9193  10.4838  20.2481

          k = 0.0000 0.0000 0.3000 (   205 PWs)   bands (ev):

    -2.1863  12.0210  12.0210  14.0882  14.8469

          k = 0.0000-0.1000 0.4000 (   198 PWs)   bands (ev):

    -1.4026   9.5434  10.6412  13.4796  14.3757

          k = 0.0000-0.2000 0.5000 (   198 PWs)   bands (ev):

    -0.2517   6.7255   9.6775  12.8379  15.1984

          k = 0.0000-0.3000 0.6000 (   205 PWs)   bands (ev):

     1.0622   4.5227   9.1874  12.4949  16.2535

          k =-0.1000-0.1000 0.5000 (   199 PWs)   bands (ev):

    -0.4202   7.8993   8.9507  13.5482  13.5603

          k =-0.1000-0.2000 0.6000 (   205 PWs)   bands (ev):

     0.9014   5.6017   8.0883  13.0420  14.5689

          k =-0.1000 0.7000-0.3000 (   202 PWs)   bands (ev):

     1.9485   4.1604   7.8375  12.8637  15.5004

          k =-0.2000 0.8000-0.3000 (   202 PWs)   bands (ev):

     2.3564   4.2177   6.9516  13.6847  14.7446

          k =-0.3000 0.3000 0.3000 (   192 PWs)   bands (ev):

    -0.4530   8.0315   8.0315  10.3228  20.2937

          k = 0.6000-0.6000 0.3000 (   198 PWs)   bands (ev):

     0.8665   5.4913   7.2922   9.8001  21.1104

          k = 0.5000-0.5000 0.3000 (   198 PWs)   bands (ev):

     1.9601   3.9637   7.0443   9.6428  21.3025

          k = 0.5000-0.6000 0.4000 (   199 PWs)   bands (ev):

     2.3459   4.2540   5.8534   9.4179  22.4922

          k = 0.0000 0.0000 0.5000 (   201 PWs)   bands (ev):

    -0.5998   9.2373   9.2373  11.7342  13.3908

          k = 0.0000-0.1000 0.6000 (   202 PWs)   bands (ev):

     0.5872   7.1634   8.2632  11.5145  13.4367

          k = 0.0000-0.2000 0.7000 (   208 PWs)   bands (ev):

     2.0030   4.9814   7.7693  11.7334  14.3658

          k =-0.1000-0.1000 0.7000 (   208 PWs)   bands (ev):

     1.9601   5.8959   7.1626  11.5529  13.3507

          k =-0.1000 0.8000-0.2000 (   208 PWs)   bands (ev):

     3.1994   4.5119   6.8068  12.0380  13.7521

          k = 0.5000-0.5000 0.5000 (   216 PWs)   bands (ev):

     4.0017   4.0017   4.0017   9.1085  24.5755

          k = 0.0000 0.0000 0.7000 (   212 PWs)   bands (ev):

     1.8253   7.2840   7.2840   9.6585  12.9080

          k = 0.0000-0.1000 0.8000 (   208 PWs)   bands (ev):

     3.3646   5.7310   6.7889   9.9961  12.1891

          k =-0.1000 0.9000-0.1000 (   212 PWs)   bands (ev):

     4.8858   4.8858   6.3157  10.5375  10.5375

          k = 0.0000 0.0000 0.9000 (   212 PWs)   bands (ev):

     5.0091   6.2926   6.2926   8.6206   9.8227

     the Fermi energy is     0.6233 ev
     (compare with:     0.5974 eV, computed in scf)

     Writing all to output data dir ./QE-outdir/li.save/ :
     XML data file, pseudopotentials, collected wavefunctions

     init_run     :      0.01s CPU      0.01s WALL (       1 calls)
     electrons    :      0.19s CPU      0.37s WALL (       1 calls)

     Called by init_run:
     wfcinit      :      0.00s CPU      0.00s WALL (       1 calls)
     potinit      :      0.00s CPU      0.00s WALL (       1 calls)
     hinit0       :      0.01s CPU      0.01s WALL (       1 calls)

     Called by electrons:
     c_bands      :      0.19s CPU      0.37s WALL (       1 calls)
     v_of_rho     :      0.00s CPU      0.00s WALL (       1 calls)

     Called by c_bands:
     init_us_2    :      0.00s CPU      0.00s WALL (      44 calls)
     cegterg      :      0.17s CPU      0.33s WALL (      62 calls)

     Called by *egterg:
     cdiaghg      :      0.11s CPU      0.28s WALL (     930 calls)
     h_psi        :      0.06s CPU      0.07s WALL (     992 calls)
     g_psi        :      0.00s CPU      0.00s WALL (     886 calls)

     Called by h_psi:
     h_psi:calbec :      0.00s CPU      0.00s WALL (     992 calls)
     vloc_psi     :      0.06s CPU      0.06s WALL (     992 calls)
                                        0.00s GPU  (     992 calls)
     add_vuspsi   :      0.00s CPU      0.00s WALL (     992 calls)

     General routines
     calbec       :      0.00s CPU      0.00s WALL (     992 calls)
     fft          :      0.00s CPU      0.00s WALL (      11 calls)
     fftw         :      0.05s CPU      0.05s WALL (    7710 calls)
     davcio       :      0.00s CPU      0.00s WALL (      88 calls)

     Parallel routines

     PWSCF        :      0.23s CPU      0.42s WALL


   This run was terminated on:  16:36:43  27Jan2026            

=------------------------------------------------------------------------------=
   JOB DONE.
=------------------------------------------------------------------------------=
