
     Program PWSCF v.7.5 starts on 31Jan2026 at 23:33:20 

     This program is part of the open-source Quantum ESPRESSO suite
     for quantum simulation of materials; please cite
         "P. Giannozzi et al., J. Phys.:Condens. Matter 21 395502 (2009);
         "P. Giannozzi et al., J. Phys.:Condens. Matter 29 465901 (2017);
         "P. Giannozzi et al., J. Chem. Phys. 152 154105 (2020);
          URL http://www.quantum-espresso.org", 
     in publications or presentations arising from this work. More details at
     http://www.quantum-espresso.org/quote

     Parallel version (MPI), running on     1 processors

     MPI processes distributed on     1 nodes
     0 MiB available memory on the printing compute node when the environment starts

     Waiting for input...
     Reading input from standard input
     Message from routine read_cards :
     DEPRECATED: no units specified in ATOMIC_POSITIONS card
     Message from routine read_cards :
     ATOMIC_POSITIONS: units set to alat

     Current dimensions of program PWSCF are:
     Max number of different atomic species (ntypx) = 10
     Max number of k-points (npk) =  40000
     Max angular momentum in pseudopotentials (lmaxx) =  4
     file Li.pbe-mt_fhi.UPF: wavefunction(s)  2p 4f renormalized

     Subspace diagonalization in iterative solution of the eigenvalue problem:
     a serial algorithm will be used


     G-vector sticks info
     --------------------
     sticks:   dense  smooth     PW     G-vecs:    dense   smooth      PW
     Sum         181     181     67                 1601     1601     369

     Using Slab Decomposition



     bravais-lattice index     =            3
     lattice parameter (alat)  =       6.4400  a.u.
     unit-cell volume          =     133.5450 (a.u.)^3
     number of atoms/cell      =            1
     number of atomic types    =            1
     number of electrons       =         1.00
     number of Kohn-Sham states=            5
     kinetic-energy cutoff     =      20.0000  Ry
     charge density cutoff     =      80.0000  Ry
     scf convergence threshold =      1.0E-08
     mixing beta               =       0.7000
     number of iterations used =            8  plain     mixing
     Exchange-correlation= PBE
                           (   1   4   3   4   0   0   0)

     celldm(1)=   6.440000  celldm(2)=   0.000000  celldm(3)=   0.000000
     celldm(4)=   0.000000  celldm(5)=   0.000000  celldm(6)=   0.000000

     crystal axes: (cart. coord. in units of alat)
               a(1) = (   0.500000   0.500000   0.500000 )  
               a(2) = (  -0.500000   0.500000   0.500000 )  
               a(3) = (  -0.500000  -0.500000   0.500000 )  

     reciprocal axes: (cart. coord. in units 2 pi/alat)
               b(1) = (  1.000000  0.000000  1.000000 )  
               b(2) = ( -1.000000  1.000000  0.000000 )  
               b(3) = (  0.000000 -1.000000  1.000000 )  


     PseudoPot. # 1 for Li read from file:
     ./pseudopot/Li.pbe-mt_fhi.UPF
     MD5 check sum: 3419f5616d131090147e867976aae79b
     Pseudo is Norm-conserving + core correction, Zval =  1.0
     Generated using FHI98PP, converted with fhi2upf.x v.5.0.2
     Using radial grid of  433 points,  3 beta functions with: 
                l(1) =   0
                l(2) =   1
                l(3) =   3

     atomic species   valence    mass     pseudopotential
     Li                1.00     6.94000     Li( 1.00)

     48 Sym. Ops., with inversion, found



   Cartesian axes

     site n.     atom                  positions (alat units)
         1        Li     tau(   1) = (   0.0000000   0.0000000   0.0000000  )

     number of k points=    44  Methfessel-Paxton smearing, width (Ry)=  0.0100
                       cart. coord. in units 2pi/alat
        k(    1) = (   0.0000000   0.0000000   0.1000000), wk =   0.0120000
        k(    2) = (   0.0000000  -0.1000000   0.2000000), wk =   0.0480000
        k(    3) = (   0.0000000  -0.2000000   0.3000000), wk =   0.0480000
        k(    4) = (   0.0000000  -0.3000000   0.4000000), wk =   0.0480000
        k(    5) = (   0.0000000  -0.4000000   0.5000000), wk =   0.0480000
        k(    6) = (  -0.1000000   0.1000000   0.1000000), wk =   0.0160000
        k(    7) = (  -0.1000000  -0.1000000   0.3000000), wk =   0.0480000
        k(    8) = (  -0.1000000  -0.2000000   0.4000000), wk =   0.0960000
        k(    9) = (  -0.1000000  -0.3000000   0.5000000), wk =   0.0960000
        k(   10) = (  -0.1000000   0.6000000  -0.4000000), wk =   0.0480000
        k(   11) = (  -0.2000000   0.2000000   0.1000000), wk =   0.0480000
        k(   12) = (  -0.2000000  -0.2000000   0.5000000), wk =   0.0480000
        k(   13) = (  -0.2000000   0.7000000  -0.4000000), wk =   0.0960000
        k(   14) = (  -0.3000000   0.3000000   0.1000000), wk =   0.0480000
        k(   15) = (  -0.3000000   0.2000000   0.2000000), wk =   0.0480000
        k(   16) = (  -0.3000000   0.7000000  -0.3000000), wk =   0.0160000
        k(   17) = (  -0.4000000   0.4000000   0.1000000), wk =   0.0480000
        k(   18) = (  -0.4000000   0.3000000   0.2000000), wk =   0.0960000
        k(   19) = (   0.5000000  -0.5000000   0.1000000), wk =   0.0240000
        k(   20) = (   0.5000000  -0.6000000   0.2000000), wk =   0.0960000
        k(   21) = (   0.5000000  -0.7000000   0.3000000), wk =   0.0480000
        k(   22) = (   0.4000000  -0.6000000   0.3000000), wk =   0.0480000
        k(   23) = (   0.0000000   0.0000000   0.3000000), wk =   0.0120000
        k(   24) = (   0.0000000  -0.1000000   0.4000000), wk =   0.0480000
        k(   25) = (   0.0000000  -0.2000000   0.5000000), wk =   0.0480000
        k(   26) = (   0.0000000  -0.3000000   0.6000000), wk =   0.0480000
        k(   27) = (  -0.1000000  -0.1000000   0.5000000), wk =   0.0480000
        k(   28) = (  -0.1000000  -0.2000000   0.6000000), wk =   0.0960000
        k(   29) = (  -0.1000000   0.7000000  -0.3000000), wk =   0.0480000
        k(   30) = (  -0.2000000   0.8000000  -0.3000000), wk =   0.0480000
        k(   31) = (  -0.3000000   0.3000000   0.3000000), wk =   0.0160000
        k(   32) = (   0.6000000  -0.6000000   0.3000000), wk =   0.0480000
        k(   33) = (   0.5000000  -0.5000000   0.3000000), wk =   0.0240000
        k(   34) = (   0.5000000  -0.6000000   0.4000000), wk =   0.0480000
        k(   35) = (   0.0000000   0.0000000   0.5000000), wk =   0.0120000
        k(   36) = (   0.0000000  -0.1000000   0.6000000), wk =   0.0480000
        k(   37) = (   0.0000000  -0.2000000   0.7000000), wk =   0.0480000
        k(   38) = (  -0.1000000  -0.1000000   0.7000000), wk =   0.0480000
        k(   39) = (  -0.1000000   0.8000000  -0.2000000), wk =   0.0480000
        k(   40) = (   0.5000000  -0.5000000   0.5000000), wk =   0.0040000
        k(   41) = (   0.0000000   0.0000000   0.7000000), wk =   0.0120000
        k(   42) = (   0.0000000  -0.1000000   0.8000000), wk =   0.0480000
        k(   43) = (  -0.1000000   0.9000000  -0.1000000), wk =   0.0160000
        k(   44) = (   0.0000000   0.0000000   0.9000000), wk =   0.0120000

     Dense  grid:     1601 G-vectors     FFT dimensions: (  15,  15,  15)

     Estimated max dynamical RAM per process >       1.98 MB

     Initial potential from superposition of free atoms

     starting charge       0.9960, renormalised to       1.0000
     Starting wfcs are   16 randomized atomic wfcs

     total cpu time spent up to now is        0.1 secs

     Self-consistent Calculation

     iteration #  1     ecut=    20.00 Ry     beta= 0.70
     Davidson diagonalization with overlap
     ethr =  1.00E-02,  avg # of iterations =  4.6

     Threshold (ethr) on eigenvalues was too large:
     Diagonalizing with lowered threshold

     Davidson diagonalization with overlap
     ethr =  2.09E-05,  avg # of iterations =  3.5

     total cpu time spent up to now is        0.2 secs

     total energy              =      -0.69497430 Ry
     estimated scf accuracy    <       0.00020803 Ry

     iteration #  2     ecut=    20.00 Ry     beta= 0.70
     Davidson diagonalization with overlap
     ethr =  2.08E-05,  avg # of iterations =  1.0

     total cpu time spent up to now is        0.2 secs

     total energy              =      -0.69497313 Ry
     estimated scf accuracy    <       0.00001851 Ry

     iteration #  3     ecut=    20.00 Ry     beta= 0.70
     Davidson diagonalization with overlap
     ethr =  1.85E-06,  avg # of iterations =  1.5

     total cpu time spent up to now is        0.3 secs

     End of self-consistent calculation

          k = 0.0000 0.0000 0.1000 (   201 PWs)   bands (ev):

    -2.9725  14.8063  14.8064  15.0909  18.9395

          k = 0.0000-0.1000 0.2000 (   202 PWs)   bands (ev):

    -2.5847  12.5649  13.4630  14.5480  17.2375

          k = 0.0000-0.2000 0.3000 (   199 PWs)   bands (ev):

    -1.8116   9.3871  12.1462  13.7182  16.4958

          k = 0.0000-0.3000 0.4000 (   194 PWs)   bands (ev):

    -0.6823   6.4743  11.2108  12.9917  15.4835

          k = 0.0000-0.4000 0.5000 (   199 PWs)   bands (ev):

     0.5752   4.2977  10.7322  12.5931  14.9745

          k =-0.1000 0.1000 0.1000 (   198 PWs)   bands (ev):

    -2.7789  13.8082  14.1639  14.1640  18.2409

          k =-0.1000-0.1000 0.3000 (   203 PWs)   bands (ev):

    -2.0015  10.7910  11.3852  13.8544  16.3493

          k =-0.1000-0.2000 0.4000 (   199 PWs)   bands (ev):

    -1.0367   7.9266  10.1471  13.0676  16.3584

          k =-0.1000-0.3000 0.5000 (   200 PWs)   bands (ev):

     0.2407   5.3325   9.4590  12.4786  16.4269

          k =-0.1000 0.6000-0.4000 (   199 PWs)   bands (ev):

     1.1802   3.9422   9.2291  12.2693  16.3687

          k =-0.2000 0.2000 0.1000 (   199 PWs)   bands (ev):

    -2.1985  11.0203  12.6226  12.9372  17.7300

          k =-0.2000-0.2000 0.5000 (   201 PWs)   bands (ev):

     0.1139   6.2204   8.2834  12.5856  16.6064

          k =-0.2000 0.7000-0.4000 (   204 PWs)   bands (ev):

     1.4968   4.2751   7.5597  12.2888  17.1341

          k =-0.3000 0.3000 0.1000 (   201 PWs)   bands (ev):

    -1.2396   7.8832  11.6161  11.8647  17.0037

          k =-0.3000 0.2000 0.2000 (   203 PWs)   bands (ev):

    -1.4255   9.2089  10.2407  11.7263  18.5858

          k =-0.3000 0.7000-0.3000 (   203 PWs)   bands (ev):

     2.9552   2.9552   6.8152  12.2278  18.4358

          k =-0.4000 0.4000 0.1000 (   199 PWs)   bands (ev):

     0.0219   5.2521  10.9849  11.1802  16.4169

          k =-0.4000 0.3000 0.2000 (   196 PWs)   bands (ev):

    -0.2829   6.5452   9.1006  11.0151  18.6872

          k = 0.5000-0.5000 0.1000 (   198 PWs)   bands (ev):

     0.9272   3.8836  10.7702  10.9474  16.2053

          k = 0.5000-0.6000 0.2000 (   199 PWs)   bands (ev):

     1.0432   4.3403   8.6104  10.6495  18.5393

          k = 0.5000-0.7000 0.3000 (   201 PWs)   bands (ev):

     1.0325   4.9860   7.3649  10.5898  20.0836

          k = 0.4000-0.6000 0.3000 (   204 PWs)   bands (ev):

     2.2005   3.6210   6.8896  10.4452  20.1874

          k = 0.0000 0.0000 0.3000 (   205 PWs)   bands (ev):

    -2.1926  11.9818  11.9818  14.0407  14.8036

          k = 0.0000-0.1000 0.4000 (   201 PWs)   bands (ev):

    -1.4101   9.5104  10.6057  13.4348  14.3312

          k = 0.0000-0.2000 0.5000 (   198 PWs)   bands (ev):

    -0.2609   6.6991   9.6446  12.7945  15.1521

          k = 0.0000-0.3000 0.6000 (   205 PWs)   bands (ev):

     1.0516   4.5002   9.1558  12.4522  16.2041

          k =-0.1000-0.1000 0.5000 (   199 PWs)   bands (ev):

    -0.4293   7.8717   8.9180  13.5018  13.5195

          k =-0.1000-0.2000 0.6000 (   207 PWs)   bands (ev):

     0.8903   5.5789   8.0574  12.9986  14.5240

          k =-0.1000 0.7000-0.3000 (   210 PWs)   bands (ev):

     1.9364   4.1396   7.8067  12.8201  15.4525

          k =-0.2000 0.8000-0.3000 (   205 PWs)   bands (ev):

     2.3427   4.1996   6.9207  13.6390  14.7005

          k =-0.3000 0.3000 0.3000 (   192 PWs)   bands (ev):

    -0.4618   8.0039   8.0039  10.2818  20.2332

          k = 0.6000-0.6000 0.3000 (   198 PWs)   bands (ev):

     0.8557   5.4694   7.2666   9.7592  21.3191

          k = 0.5000-0.5000 0.3000 (   206 PWs)   bands (ev):

     1.9479   3.9441   7.0190   9.6018  21.2385

          k = 0.5000-0.6000 0.4000 (   204 PWs)   bands (ev):

     2.3322   4.2358   5.8302   9.3763  22.4249

          k = 0.0000 0.0000 0.5000 (   201 PWs)   bands (ev):

    -0.6086   9.2057   9.2057  11.6987  13.3423

          k = 0.0000-0.1000 0.6000 (   204 PWs)   bands (ev):

     0.5763   7.1367   8.2340  11.4782  13.3884

          k = 0.0000-0.2000 0.7000 (   208 PWs)   bands (ev):

     1.9900   4.9592   7.7415  11.6935  14.3184

          k =-0.1000-0.1000 0.7000 (   208 PWs)   bands (ev):

     1.9466   5.8736   7.1346  11.5172  13.3029

          k =-0.1000 0.8000-0.2000 (   208 PWs)   bands (ev):

     3.1841   4.4922   6.7792  11.9996  13.7106

          k = 0.5000-0.5000 0.5000 (   216 PWs)   bands (ev):

     3.9844   3.9844   3.9844   9.0658  24.5028

          k = 0.0000 0.0000 0.7000 (   212 PWs)   bands (ev):

     1.8119   7.2575   7.2575   9.6283  12.8601

          k = 0.0000-0.1000 0.8000 (   208 PWs)   bands (ev):

     3.3482   5.7081   6.7637   9.9641  12.1497

          k =-0.1000 0.9000-0.1000 (   212 PWs)   bands (ev):

     4.8660   4.8660   6.2903  10.5044  10.5044

          k = 0.0000 0.0000 0.9000 (   212 PWs)   bands (ev):

     4.9886   6.2686   6.2686   8.5930   9.7913

     the Fermi energy is     0.6132 ev

!    total energy              =      -0.69497321 Ry
     estimated scf accuracy    <          9.2E-10 Ry
     smearing contrib. (-TS)   =      -0.00007290 Ry
     internal energy E=F+TS    =      -0.69490031 Ry

     The total energy is F=E-TS. E is the sum of the following terms:
     one-electron contribution =       0.42036586 Ry
     hartree contribution      =       0.00108522 Ry
     xc contribution           =      -0.55125299 Ry
     ewald contribution        =      -0.56509840 Ry

     convergence has been achieved in   3 iterations

     Forces acting on atoms (cartesian axes, Ry/au):

     atom    1 type  1   force =     0.00000000    0.00000000    0.00000000

     Total force =     0.000000     Total SCF correction =     0.000000


     Computing stress (Cartesian axis) and pressure

          total   stress  (Ry/bohr**3)                   (kbar)     P=       -0.81
  -0.00000552   0.00000000  -0.00000000           -0.81        0.00       -0.00
   0.00000000  -0.00000552   0.00000000            0.00       -0.81        0.00
  -0.00000000   0.00000000  -0.00000552           -0.00        0.00       -0.81


     Writing all to output data dir ./QE-outdir/li.save/ :
     XML data file, charge density, pseudopotentials, collected wavefunctions

     init_run     :      0.04s CPU      0.06s WALL (       1 calls)
     electrons    :      0.13s CPU      0.21s WALL (       1 calls)
     forces       :      0.00s CPU      0.00s WALL (       1 calls)
     stress       :      0.02s CPU      0.02s WALL (       1 calls)

     Called by init_run:
     wfcinit      :      0.03s CPU      0.04s WALL (       1 calls)
     potinit      :      0.00s CPU      0.00s WALL (       1 calls)
     hinit0       :      0.01s CPU      0.01s WALL (       1 calls)

     Called by electrons:
     c_bands      :      0.12s CPU      0.20s WALL (       4 calls)
     sum_band     :      0.01s CPU      0.01s WALL (       4 calls)
     v_of_rho     :      0.00s CPU      0.00s WALL (       4 calls)
     mix_rho      :      0.00s CPU      0.00s WALL (       4 calls)

     Called by c_bands:
     init_us_2    :      0.01s CPU      0.01s WALL (     484 calls)
     cegterg      :      0.11s CPU      0.19s WALL (     176 calls)

     Called by *egterg:
     cdiaghg      :      0.07s CPU      0.16s WALL (     596 calls)
     h_psi        :      0.05s CPU      0.06s WALL (     684 calls)
     g_psi        :      0.00s CPU      0.00s WALL (     464 calls)

     Called by h_psi:
     h_psi:calbec :      0.00s CPU      0.00s WALL (     684 calls)
     vloc_psi     :      0.05s CPU      0.05s WALL (     684 calls)
                                        0.00s GPU  (     684 calls)
     add_vuspsi   :      0.00s CPU      0.00s WALL (     684 calls)

     General routines
     calbec       :      0.01s CPU      0.01s WALL (    1432 calls)
     fft          :      0.00s CPU      0.00s WALL (      65 calls)
     ffts         :      0.00s CPU      0.00s WALL (       4 calls)
     fftw         :      0.04s CPU      0.05s WALL (    7254 calls)

     Parallel routines

     PWSCF        :      0.20s CPU      0.31s WALL


   This run was terminated on:  23:33:20  31Jan2026            

=------------------------------------------------------------------------------=
   JOB DONE.
=------------------------------------------------------------------------------=
