
     Program PWSCF v.7.5 starts on 26Jan2026 at 14: 5: 1 

     This program is part of the open-source Quantum ESPRESSO suite
     for quantum simulation of materials; please cite
         "P. Giannozzi et al., J. Phys.:Condens. Matter 21 395502 (2009);
         "P. Giannozzi et al., J. Phys.:Condens. Matter 29 465901 (2017);
         "P. Giannozzi et al., J. Chem. Phys. 152 154105 (2020);
          URL http://www.quantum-espresso.org", 
     in publications or presentations arising from this work. More details at
     http://www.quantum-espresso.org/quote

     Parallel version (MPI), running on     1 processors

     MPI processes distributed on     1 nodes
     0 MiB available memory on the printing compute node when the environment starts

     Waiting for input...
     Reading input from standard input
     Message from routine read_cards :
     DEPRECATED: no units specified in ATOMIC_POSITIONS card
     Message from routine read_cards :
     ATOMIC_POSITIONS: units set to alat

     Current dimensions of program PWSCF are:
     Max number of different atomic species (ntypx) = 10
     Max number of k-points (npk) =  40000
     Max angular momentum in pseudopotentials (lmaxx) =  4
     file Li.pbe-mt_fhi.UPF: wavefunction(s)  2p 4f renormalized

     Subspace diagonalization in iterative solution of the eigenvalue problem:
     a serial algorithm will be used


     G-vector sticks info
     --------------------
     sticks:   dense  smooth     PW     G-vecs:    dense   smooth      PW
     Sum         173     173     63                 1433     1433     321

     Using Slab Decomposition



     bravais-lattice index     =            3
     lattice parameter (alat)  =       6.1500  a.u.
     unit-cell volume          =     116.3042 (a.u.)^3
     number of atoms/cell      =            1
     number of atomic types    =            1
     number of electrons       =         1.00
     number of Kohn-Sham states=            5
     kinetic-energy cutoff     =      20.0000  Ry
     charge density cutoff     =      80.0000  Ry
     scf convergence threshold =      1.0E-08
     mixing beta               =       0.7000
     number of iterations used =            8  plain     mixing
     Exchange-correlation= PBE
                           (   1   4   3   4   0   0   0)

     celldm(1)=   6.150000  celldm(2)=   0.000000  celldm(3)=   0.000000
     celldm(4)=   0.000000  celldm(5)=   0.000000  celldm(6)=   0.000000

     crystal axes: (cart. coord. in units of alat)
               a(1) = (   0.500000   0.500000   0.500000 )  
               a(2) = (  -0.500000   0.500000   0.500000 )  
               a(3) = (  -0.500000  -0.500000   0.500000 )  

     reciprocal axes: (cart. coord. in units 2 pi/alat)
               b(1) = (  1.000000  0.000000  1.000000 )  
               b(2) = ( -1.000000  1.000000  0.000000 )  
               b(3) = (  0.000000 -1.000000  1.000000 )  


     PseudoPot. # 1 for Li read from file:
     ./pseudopot/Li.pbe-mt_fhi.UPF
     MD5 check sum: 3419f5616d131090147e867976aae79b
     Pseudo is Norm-conserving + core correction, Zval =  1.0
     Generated using FHI98PP, converted with fhi2upf.x v.5.0.2
     Using radial grid of  433 points,  3 beta functions with: 
                l(1) =   0
                l(2) =   1
                l(3) =   3

     atomic species   valence    mass     pseudopotential
     Li                1.00     6.94000     Li( 1.00)

     48 Sym. Ops., with inversion, found



   Cartesian axes

     site n.     atom                  positions (alat units)
         1        Li     tau(   1) = (   0.0000000   0.0000000   0.0000000  )

     number of k points=    44  Methfessel-Paxton smearing, width (Ry)=  0.0100
                       cart. coord. in units 2pi/alat
        k(    1) = (   0.0000000   0.0000000   0.1000000), wk =   0.0120000
        k(    2) = (   0.0000000  -0.1000000   0.2000000), wk =   0.0480000
        k(    3) = (   0.0000000  -0.2000000   0.3000000), wk =   0.0480000
        k(    4) = (   0.0000000  -0.3000000   0.4000000), wk =   0.0480000
        k(    5) = (   0.0000000  -0.4000000   0.5000000), wk =   0.0480000
        k(    6) = (  -0.1000000   0.1000000   0.1000000), wk =   0.0160000
        k(    7) = (  -0.1000000  -0.1000000   0.3000000), wk =   0.0480000
        k(    8) = (  -0.1000000  -0.2000000   0.4000000), wk =   0.0960000
        k(    9) = (  -0.1000000  -0.3000000   0.5000000), wk =   0.0960000
        k(   10) = (  -0.1000000   0.6000000  -0.4000000), wk =   0.0480000
        k(   11) = (  -0.2000000   0.2000000   0.1000000), wk =   0.0480000
        k(   12) = (  -0.2000000  -0.2000000   0.5000000), wk =   0.0480000
        k(   13) = (  -0.2000000   0.7000000  -0.4000000), wk =   0.0960000
        k(   14) = (  -0.3000000   0.3000000   0.1000000), wk =   0.0480000
        k(   15) = (  -0.3000000   0.2000000   0.2000000), wk =   0.0480000
        k(   16) = (  -0.3000000   0.7000000  -0.3000000), wk =   0.0160000
        k(   17) = (  -0.4000000   0.4000000   0.1000000), wk =   0.0480000
        k(   18) = (  -0.4000000   0.3000000   0.2000000), wk =   0.0960000
        k(   19) = (   0.5000000  -0.5000000   0.1000000), wk =   0.0240000
        k(   20) = (   0.5000000  -0.6000000   0.2000000), wk =   0.0960000
        k(   21) = (   0.5000000  -0.7000000   0.3000000), wk =   0.0480000
        k(   22) = (   0.4000000  -0.6000000   0.3000000), wk =   0.0480000
        k(   23) = (   0.0000000   0.0000000   0.3000000), wk =   0.0120000
        k(   24) = (   0.0000000  -0.1000000   0.4000000), wk =   0.0480000
        k(   25) = (   0.0000000  -0.2000000   0.5000000), wk =   0.0480000
        k(   26) = (   0.0000000  -0.3000000   0.6000000), wk =   0.0480000
        k(   27) = (  -0.1000000  -0.1000000   0.5000000), wk =   0.0480000
        k(   28) = (  -0.1000000  -0.2000000   0.6000000), wk =   0.0960000
        k(   29) = (  -0.1000000   0.7000000  -0.3000000), wk =   0.0480000
        k(   30) = (  -0.2000000   0.8000000  -0.3000000), wk =   0.0480000
        k(   31) = (  -0.3000000   0.3000000   0.3000000), wk =   0.0160000
        k(   32) = (   0.6000000  -0.6000000   0.3000000), wk =   0.0480000
        k(   33) = (   0.5000000  -0.5000000   0.3000000), wk =   0.0240000
        k(   34) = (   0.5000000  -0.6000000   0.4000000), wk =   0.0480000
        k(   35) = (   0.0000000   0.0000000   0.5000000), wk =   0.0120000
        k(   36) = (   0.0000000  -0.1000000   0.6000000), wk =   0.0480000
        k(   37) = (   0.0000000  -0.2000000   0.7000000), wk =   0.0480000
        k(   38) = (  -0.1000000  -0.1000000   0.7000000), wk =   0.0480000
        k(   39) = (  -0.1000000   0.8000000  -0.2000000), wk =   0.0480000
        k(   40) = (   0.5000000  -0.5000000   0.5000000), wk =   0.0040000
        k(   41) = (   0.0000000   0.0000000   0.7000000), wk =   0.0120000
        k(   42) = (   0.0000000  -0.1000000   0.8000000), wk =   0.0480000
        k(   43) = (  -0.1000000   0.9000000  -0.1000000), wk =   0.0160000
        k(   44) = (   0.0000000   0.0000000   0.9000000), wk =   0.0120000

     Dense  grid:     1433 G-vectors     FFT dimensions: (  15,  15,  15)

     Estimated max dynamical RAM per process >       1.81 MB

     Initial potential from superposition of free atoms

     starting charge       0.9960, renormalised to       1.0000
     Starting wfcs are   16 randomized atomic wfcs

     total cpu time spent up to now is        0.1 secs

     Self-consistent Calculation

     iteration #  1     ecut=    20.00 Ry     beta= 0.70
     Davidson diagonalization with overlap
     ethr =  1.00E-02,  avg # of iterations =  4.5

     Threshold (ethr) on eigenvalues was too large:
     Diagonalizing with lowered threshold

     Davidson diagonalization with overlap
     ethr =  2.71E-05,  avg # of iterations =  3.8

     total cpu time spent up to now is        0.2 secs

     total energy              =      -0.69381690 Ry
     estimated scf accuracy    <       0.00027354 Ry

     iteration #  2     ecut=    20.00 Ry     beta= 0.70
     Davidson diagonalization with overlap
     ethr =  2.74E-05,  avg # of iterations =  1.0

     total cpu time spent up to now is        0.2 secs

     total energy              =      -0.69381444 Ry
     estimated scf accuracy    <       0.00002407 Ry

     iteration #  3     ecut=    20.00 Ry     beta= 0.70
     Davidson diagonalization with overlap
     ethr =  2.41E-06,  avg # of iterations =  1.3

     total cpu time spent up to now is        0.3 secs

     End of self-consistent calculation

          k = 0.0000 0.0000 0.1000 (   177 PWs)   bands (ev):

    -2.7603  16.6327  16.6327  16.9663  20.9980

          k = 0.0000-0.1000 0.2000 (   173 PWs)   bands (ev):

    -2.3536  14.1417  15.1325  16.3496  19.1798

          k = 0.0000-0.2000 0.3000 (   177 PWs)   bands (ev):

    -1.5424  10.6544  13.6739  15.4107  18.3518

          k = 0.0000-0.3000 0.4000 (   178 PWs)   bands (ev):

    -0.3593   7.4955  12.6407  14.5978  17.2408

          k = 0.0000-0.4000 0.5000 (   179 PWs)   bands (ev):

     0.9346   5.1847  12.1138  14.1544  16.6824

          k =-0.1000 0.1000 0.1000 (   177 PWs)   bands (ev):

    -2.5576  15.5542  15.8913  15.8913  20.2956

          k =-0.1000-0.1000 0.3000 (   172 PWs)   bands (ev):

    -1.7409  12.1413  12.8863  15.5721  18.2046

          k =-0.1000-0.2000 0.4000 (   175 PWs)   bands (ev):

    -0.7260   9.0276  11.5205  14.6849  18.2386

          k =-0.1000-0.3000 0.5000 (   177 PWs)   bands (ev):

     0.6115   6.2367  10.7632  14.0264  18.3562

          k =-0.1000 0.6000-0.4000 (   174 PWs)   bands (ev):

     1.5681   4.7822  10.5109  13.7933  18.3017

          k =-0.2000 0.2000 0.1000 (   175 PWs)   bands (ev):

    -1.9488  12.4300  14.2439  14.5092  19.7563

          k =-0.2000-0.2000 0.5000 (   175 PWs)   bands (ev):

     0.4895   7.1039   9.5733  14.1493  18.4906

          k =-0.2000 0.7000-0.4000 (   175 PWs)   bands (ev):

     1.9435   5.0114   8.8007  13.8228  19.1006

          k =-0.3000 0.3000 0.1000 (   177 PWs)   bands (ev):

    -0.9424   9.0073  13.1457  13.3162  18.9446

          k =-0.3000 0.2000 0.2000 (   175 PWs)   bands (ev):

    -1.1363  10.3900  11.6198  13.2644  20.7434

          k =-0.3000 0.7000-0.3000 (   179 PWs)   bands (ev):

     3.5168   3.5168   8.0596  13.7610  20.4965

          k =-0.4000 0.4000 0.1000 (   179 PWs)   bands (ev):

     0.3738   6.1747  12.4544  12.5584  18.2917

          k =-0.4000 0.3000 0.2000 (   175 PWs)   bands (ev):

     0.0661   7.5028  10.3560  12.5116  20.8487

          k = 0.5000-0.5000 0.1000 (   174 PWs)   bands (ev):

     1.2904   4.7457  12.2204  12.3009  18.0570

          k = 0.5000-0.6000 0.2000 (   173 PWs)   bands (ev):

     1.4472   5.1523   9.8110  12.1239  20.6793

          k = 0.5000-0.7000 0.3000 (   173 PWs)   bands (ev):

     1.4596   5.7463   8.5314  12.0828  22.3351

          k = 0.4000-0.6000 0.3000 (   169 PWs)   bands (ev):

     2.6883   4.2802   8.0263  11.9379  22.5084

          k = 0.0000 0.0000 0.3000 (   177 PWs)   bands (ev):

    -1.9409  13.4807  13.4807  15.8639  16.4631

          k = 0.0000-0.1000 0.4000 (   171 PWs)   bands (ev):

    -1.1160  10.7648  11.9613  15.1439  16.0346

          k = 0.0000-0.2000 0.5000 (   177 PWs)   bands (ev):

     0.0947   7.7094  10.9016  14.4587  16.9320

          k = 0.0000-0.3000 0.6000 (   175 PWs)   bands (ev):

     1.4576   5.3655  10.3641  14.0925  18.1023

          k =-0.1000-0.1000 0.5000 (   178 PWs)   bands (ev):

    -0.0778   8.9254  10.1706  15.0857  15.2822

          k =-0.1000-0.2000 0.6000 (   178 PWs)   bands (ev):

     1.3165   6.4466   9.2411  14.6628  16.2461

          k =-0.1000 0.7000-0.3000 (   177 PWs)   bands (ev):

     2.3987   4.9314   8.9668  14.4746  17.2661

          k =-0.2000 0.8000-0.3000 (   175 PWs)   bands (ev):

     2.8646   4.8846   8.1052  15.3851  16.3894

          k =-0.3000 0.3000 0.3000 (   177 PWs)   bands (ev):

    -0.1201   9.0612   9.0612  11.8558  22.5588

          k = 0.6000-0.6000 0.3000 (   177 PWs)   bands (ev):

     1.2728   6.3059   8.2498  11.3331  23.7590

          k = 0.5000-0.5000 0.3000 (   172 PWs)   bands (ev):

     2.4108   4.6868   7.9778  11.1751  23.6540

          k = 0.5000-0.6000 0.4000 (   169 PWs)   bands (ev):

     2.8505   4.9219   6.7101  10.9780  25.0000

          k = 0.0000 0.0000 0.5000 (   168 PWs)   bands (ev):

    -0.2639  10.4175  10.4175  13.0585  15.2037

          k = 0.0000-0.1000 0.6000 (   174 PWs)   bands (ev):

     0.9964   8.1506   9.3475  12.8648  15.2443

          k = 0.0000-0.2000 0.7000 (   178 PWs)   bands (ev):

     2.4871   5.8092   8.8054  13.2177  16.1408

          k =-0.1000-0.1000 0.7000 (   177 PWs)   bands (ev):

     2.4611   6.7291   8.2077  12.8862  15.1361

          k =-0.1000 0.8000-0.2000 (   181 PWs)   bands (ev):

     3.7701   5.2453   7.8373  13.4694  15.3011

          k = 0.5000-0.5000 0.5000 (   180 PWs)   bands (ev):

     4.6458   4.6458   4.6458  10.7131  27.3015

          k = 0.0000 0.0000 0.7000 (   180 PWs)   bands (ev):

     2.3269   8.2727   8.2727  10.7881  14.6894

          k = 0.0000-0.1000 0.8000 (   178 PWs)   bands (ev):

     3.9759   6.5816   7.7295  11.1920  13.6563

          k =-0.1000 0.9000-0.1000 (   176 PWs)   bands (ev):

     5.6227   5.6227   7.2622  11.7745  11.7745

          k = 0.0000 0.0000 0.9000 (   176 PWs)   bands (ev):

     5.7719   7.1855   7.1855   9.6528  10.9974

     the Fermi energy is     1.0051 ev

!    total energy              =      -0.69381451 Ry
     estimated scf accuracy    <          6.2E-10 Ry
     smearing contrib. (-TS)   =      -0.00007072 Ry
     internal energy E=F+TS    =      -0.69374379 Ry

     The total energy is F=E-TS. E is the sum of the following terms:
     one-electron contribution =       0.46567555 Ry
     hartree contribution      =       0.00132408 Ry
     xc contribution           =      -0.56899811 Ry
     ewald contribution        =      -0.59174531 Ry

     convergence has been achieved in   3 iterations

     Forces acting on atoms (cartesian axes, Ry/au):

     atom    1 type  1   force =     0.00000000    0.00000000    0.00000000

     Total force =     0.000000     Total SCF correction =     0.000000


     Computing stress (Cartesian axis) and pressure

          total   stress  (Ry/bohr**3)                   (kbar)     P=       22.21
   0.00015101  -0.00000000   0.00000000           22.21       -0.00        0.00
  -0.00000000   0.00015101  -0.00000000           -0.00       22.21       -0.00
   0.00000000  -0.00000000   0.00015101            0.00       -0.00       22.21


     Writing all to output data dir ./QE-outdir/li.save/ :
     XML data file, charge density, pseudopotentials, collected wavefunctions

     init_run     :      0.04s CPU      0.06s WALL (       1 calls)
     electrons    :      0.12s CPU      0.21s WALL (       1 calls)
     forces       :      0.00s CPU      0.00s WALL (       1 calls)
     stress       :      0.02s CPU      0.02s WALL (       1 calls)

     Called by init_run:
     wfcinit      :      0.03s CPU      0.04s WALL (       1 calls)
     potinit      :      0.00s CPU      0.00s WALL (       1 calls)
     hinit0       :      0.01s CPU      0.01s WALL (       1 calls)

     Called by electrons:
     c_bands      :      0.11s CPU      0.20s WALL (       4 calls)
     sum_band     :      0.01s CPU      0.01s WALL (       4 calls)
     v_of_rho     :      0.00s CPU      0.00s WALL (       4 calls)
     mix_rho      :      0.00s CPU      0.00s WALL (       4 calls)

     Called by c_bands:
     init_us_2    :      0.01s CPU      0.01s WALL (     484 calls)
     cegterg      :      0.11s CPU      0.19s WALL (     176 calls)

     Called by *egterg:
     cdiaghg      :      0.07s CPU      0.16s WALL (     599 calls)
     h_psi        :      0.05s CPU      0.05s WALL (     687 calls)
     g_psi        :      0.00s CPU      0.00s WALL (     467 calls)

     Called by h_psi:
     h_psi:calbec :      0.00s CPU      0.00s WALL (     687 calls)
     vloc_psi     :      0.05s CPU      0.05s WALL (     687 calls)
                                        0.00s GPU  (     687 calls)
     add_vuspsi   :      0.00s CPU      0.00s WALL (     687 calls)

     General routines
     calbec       :      0.01s CPU      0.01s WALL (    1435 calls)
     fft          :      0.00s CPU      0.00s WALL (      65 calls)
     ffts         :      0.00s CPU      0.00s WALL (       4 calls)
     fftw         :      0.04s CPU      0.04s WALL (    7170 calls)

     Parallel routines

     PWSCF        :      0.19s CPU      0.31s WALL


   This run was terminated on:  14: 5: 1  26Jan2026            

=------------------------------------------------------------------------------=
   JOB DONE.
=------------------------------------------------------------------------------=
