
     Program PWSCF v.7.5 starts on 31Jan2026 at 23:33:20 

     This program is part of the open-source Quantum ESPRESSO suite
     for quantum simulation of materials; please cite
         "P. Giannozzi et al., J. Phys.:Condens. Matter 21 395502 (2009);
         "P. Giannozzi et al., J. Phys.:Condens. Matter 29 465901 (2017);
         "P. Giannozzi et al., J. Chem. Phys. 152 154105 (2020);
          URL http://www.quantum-espresso.org", 
     in publications or presentations arising from this work. More details at
     http://www.quantum-espresso.org/quote

     Parallel version (MPI), running on     1 processors

     MPI processes distributed on     1 nodes
     0 MiB available memory on the printing compute node when the environment starts

     Waiting for input...
     Reading input from standard input
     Message from routine read_cards :
     DEPRECATED: no units specified in ATOMIC_POSITIONS card
     Message from routine read_cards :
     ATOMIC_POSITIONS: units set to alat

     Current dimensions of program PWSCF are:
     Max number of different atomic species (ntypx) = 10
     Max number of k-points (npk) =  40000
     Max angular momentum in pseudopotentials (lmaxx) =  4
     file Li.pbe-mt_fhi.UPF: wavefunction(s)  2p 4f renormalized

     Subspace diagonalization in iterative solution of the eigenvalue problem:
     a serial algorithm will be used


     G-vector sticks info
     --------------------
     sticks:   dense  smooth     PW     G-vecs:    dense   smooth      PW
     Sum         181     181     67                 1601     1601     369

     Using Slab Decomposition



     bravais-lattice index     =            3
     lattice parameter (alat)  =       6.4600  a.u.
     unit-cell volume          =     134.7931 (a.u.)^3
     number of atoms/cell      =            1
     number of atomic types    =            1
     number of electrons       =         1.00
     number of Kohn-Sham states=            5
     kinetic-energy cutoff     =      20.0000  Ry
     charge density cutoff     =      80.0000  Ry
     scf convergence threshold =      1.0E-08
     mixing beta               =       0.7000
     number of iterations used =            8  plain     mixing
     Exchange-correlation= PBE
                           (   1   4   3   4   0   0   0)

     celldm(1)=   6.460000  celldm(2)=   0.000000  celldm(3)=   0.000000
     celldm(4)=   0.000000  celldm(5)=   0.000000  celldm(6)=   0.000000

     crystal axes: (cart. coord. in units of alat)
               a(1) = (   0.500000   0.500000   0.500000 )  
               a(2) = (  -0.500000   0.500000   0.500000 )  
               a(3) = (  -0.500000  -0.500000   0.500000 )  

     reciprocal axes: (cart. coord. in units 2 pi/alat)
               b(1) = (  1.000000  0.000000  1.000000 )  
               b(2) = ( -1.000000  1.000000  0.000000 )  
               b(3) = (  0.000000 -1.000000  1.000000 )  


     PseudoPot. # 1 for Li read from file:
     ./pseudopot/Li.pbe-mt_fhi.UPF
     MD5 check sum: 3419f5616d131090147e867976aae79b
     Pseudo is Norm-conserving + core correction, Zval =  1.0
     Generated using FHI98PP, converted with fhi2upf.x v.5.0.2
     Using radial grid of  433 points,  3 beta functions with: 
                l(1) =   0
                l(2) =   1
                l(3) =   3

     atomic species   valence    mass     pseudopotential
     Li                1.00     6.94000     Li( 1.00)

     48 Sym. Ops., with inversion, found



   Cartesian axes

     site n.     atom                  positions (alat units)
         1        Li     tau(   1) = (   0.0000000   0.0000000   0.0000000  )

     number of k points=    44  Methfessel-Paxton smearing, width (Ry)=  0.0100
                       cart. coord. in units 2pi/alat
        k(    1) = (   0.0000000   0.0000000   0.1000000), wk =   0.0120000
        k(    2) = (   0.0000000  -0.1000000   0.2000000), wk =   0.0480000
        k(    3) = (   0.0000000  -0.2000000   0.3000000), wk =   0.0480000
        k(    4) = (   0.0000000  -0.3000000   0.4000000), wk =   0.0480000
        k(    5) = (   0.0000000  -0.4000000   0.5000000), wk =   0.0480000
        k(    6) = (  -0.1000000   0.1000000   0.1000000), wk =   0.0160000
        k(    7) = (  -0.1000000  -0.1000000   0.3000000), wk =   0.0480000
        k(    8) = (  -0.1000000  -0.2000000   0.4000000), wk =   0.0960000
        k(    9) = (  -0.1000000  -0.3000000   0.5000000), wk =   0.0960000
        k(   10) = (  -0.1000000   0.6000000  -0.4000000), wk =   0.0480000
        k(   11) = (  -0.2000000   0.2000000   0.1000000), wk =   0.0480000
        k(   12) = (  -0.2000000  -0.2000000   0.5000000), wk =   0.0480000
        k(   13) = (  -0.2000000   0.7000000  -0.4000000), wk =   0.0960000
        k(   14) = (  -0.3000000   0.3000000   0.1000000), wk =   0.0480000
        k(   15) = (  -0.3000000   0.2000000   0.2000000), wk =   0.0480000
        k(   16) = (  -0.3000000   0.7000000  -0.3000000), wk =   0.0160000
        k(   17) = (  -0.4000000   0.4000000   0.1000000), wk =   0.0480000
        k(   18) = (  -0.4000000   0.3000000   0.2000000), wk =   0.0960000
        k(   19) = (   0.5000000  -0.5000000   0.1000000), wk =   0.0240000
        k(   20) = (   0.5000000  -0.6000000   0.2000000), wk =   0.0960000
        k(   21) = (   0.5000000  -0.7000000   0.3000000), wk =   0.0480000
        k(   22) = (   0.4000000  -0.6000000   0.3000000), wk =   0.0480000
        k(   23) = (   0.0000000   0.0000000   0.3000000), wk =   0.0120000
        k(   24) = (   0.0000000  -0.1000000   0.4000000), wk =   0.0480000
        k(   25) = (   0.0000000  -0.2000000   0.5000000), wk =   0.0480000
        k(   26) = (   0.0000000  -0.3000000   0.6000000), wk =   0.0480000
        k(   27) = (  -0.1000000  -0.1000000   0.5000000), wk =   0.0480000
        k(   28) = (  -0.1000000  -0.2000000   0.6000000), wk =   0.0960000
        k(   29) = (  -0.1000000   0.7000000  -0.3000000), wk =   0.0480000
        k(   30) = (  -0.2000000   0.8000000  -0.3000000), wk =   0.0480000
        k(   31) = (  -0.3000000   0.3000000   0.3000000), wk =   0.0160000
        k(   32) = (   0.6000000  -0.6000000   0.3000000), wk =   0.0480000
        k(   33) = (   0.5000000  -0.5000000   0.3000000), wk =   0.0240000
        k(   34) = (   0.5000000  -0.6000000   0.4000000), wk =   0.0480000
        k(   35) = (   0.0000000   0.0000000   0.5000000), wk =   0.0120000
        k(   36) = (   0.0000000  -0.1000000   0.6000000), wk =   0.0480000
        k(   37) = (   0.0000000  -0.2000000   0.7000000), wk =   0.0480000
        k(   38) = (  -0.1000000  -0.1000000   0.7000000), wk =   0.0480000
        k(   39) = (  -0.1000000   0.8000000  -0.2000000), wk =   0.0480000
        k(   40) = (   0.5000000  -0.5000000   0.5000000), wk =   0.0040000
        k(   41) = (   0.0000000   0.0000000   0.7000000), wk =   0.0120000
        k(   42) = (   0.0000000  -0.1000000   0.8000000), wk =   0.0480000
        k(   43) = (  -0.1000000   0.9000000  -0.1000000), wk =   0.0160000
        k(   44) = (   0.0000000   0.0000000   0.9000000), wk =   0.0120000

     Dense  grid:     1601 G-vectors     FFT dimensions: (  15,  15,  15)

     Estimated max dynamical RAM per process >       1.99 MB

     Initial potential from superposition of free atoms

     starting charge       0.9960, renormalised to       1.0000
     Starting wfcs are   16 randomized atomic wfcs

     total cpu time spent up to now is        0.1 secs

     Self-consistent Calculation

     iteration #  1     ecut=    20.00 Ry     beta= 0.70
     Davidson diagonalization with overlap
     ethr =  1.00E-02,  avg # of iterations =  4.5

     Threshold (ethr) on eigenvalues was too large:
     Diagonalizing with lowered threshold

     Davidson diagonalization with overlap
     ethr =  2.06E-05,  avg # of iterations =  3.5

     total cpu time spent up to now is        0.2 secs

     total energy              =      -0.69496313 Ry
     estimated scf accuracy    <       0.00020475 Ry

     iteration #  2     ecut=    20.00 Ry     beta= 0.70
     Davidson diagonalization with overlap
     ethr =  2.05E-05,  avg # of iterations =  1.0

     total cpu time spent up to now is        0.2 secs

     total energy              =      -0.69496204 Ry
     estimated scf accuracy    <       0.00001826 Ry

     iteration #  3     ecut=    20.00 Ry     beta= 0.70
     Davidson diagonalization with overlap
     ethr =  1.83E-06,  avg # of iterations =  1.7

     total cpu time spent up to now is        0.3 secs

     End of self-consistent calculation

          k = 0.0000 0.0000 0.1000 (   201 PWs)   bands (ev):

    -2.9848  14.6899  14.6899  14.9713  18.8079

          k = 0.0000-0.1000 0.2000 (   202 PWs)   bands (ev):

    -2.5983  12.4642  13.3565  14.4331  17.1128

          k = 0.0000-0.2000 0.3000 (   202 PWs)   bands (ev):

    -1.8280   9.3062  12.0484  13.6096  16.3771

          k = 0.0000-0.3000 0.4000 (   197 PWs)   bands (ev):

    -0.7024   6.4094  11.1191  12.8884  15.3711

          k = 0.0000-0.4000 0.5000 (   199 PWs)   bands (ev):

     0.5523   4.2417  10.6440  12.4934  14.8653

          k =-0.1000 0.1000 0.1000 (   198 PWs)   bands (ev):

    -2.7919  13.6968  14.0536  14.0537  18.1097

          k =-0.1000-0.1000 0.3000 (   203 PWs)   bands (ev):

    -2.0172  10.7048  11.2894  13.7448  16.2308

          k =-0.1000-0.2000 0.4000 (   199 PWs)   bands (ev):

    -1.0559   7.8563  10.0596  12.9644  16.2382

          k =-0.1000-0.3000 0.5000 (   200 PWs)   bands (ev):

     0.2173   5.2750   9.3759  12.3797  16.3036

          k =-0.1000 0.6000-0.4000 (   200 PWs)   bands (ev):

     1.1555   3.8890   9.1475  12.1716  16.2450

          k =-0.2000 0.2000 0.1000 (   201 PWs)   bands (ev):

    -2.2135  10.9302  12.5189  12.8364  17.6004

          k =-0.2000-0.2000 0.5000 (   203 PWs)   bands (ev):

     0.0903   6.1638   8.2014  12.4857  16.4857

          k =-0.2000 0.7000-0.4000 (   206 PWs)   bands (ev):

     1.4684   4.2280   7.4810  12.1907  17.0083

          k =-0.3000 0.3000 0.1000 (   201 PWs)   bands (ev):

    -1.2579   7.8116  11.5186  11.7720  16.8796

          k =-0.3000 0.2000 0.2000 (   203 PWs)   bands (ev):

    -1.4432   9.1335  10.1524  11.6286  18.4480

          k =-0.3000 0.7000-0.3000 (   209 PWs)   bands (ev):

     2.9193   2.9193   6.7362  12.1287  18.3039

          k =-0.4000 0.4000 0.1000 (   201 PWs)   bands (ev):

    -0.0003   5.1935  10.8908  11.0921  16.2971

          k =-0.4000 0.3000 0.2000 (   200 PWs)   bands (ev):

    -0.3048   6.4837   9.0202  10.9200  18.5489

          k = 0.5000-0.5000 0.1000 (   198 PWs)   bands (ev):

     0.9041   3.8290  10.6778  10.8609  16.0869

          k = 0.5000-0.6000 0.2000 (   204 PWs)   bands (ev):

     1.0175   4.2886   8.5333  10.5557  18.4020

          k = 0.5000-0.7000 0.3000 (   201 PWs)   bands (ev):

     1.0054   4.9375   7.2904  10.4953  19.9397

          k = 0.4000-0.6000 0.3000 (   204 PWs)   bands (ev):

     2.1695   3.5790   6.8170  10.3507  20.0388

          k = 0.0000 0.0000 0.3000 (   205 PWs)   bands (ev):

    -2.2077  11.8861  11.8861  13.9244  14.6976

          k = 0.0000-0.1000 0.4000 (   201 PWs)   bands (ev):

    -1.4281   9.4303  10.5192  13.3251  14.2231

          k = 0.0000-0.2000 0.5000 (   204 PWs)   bands (ev):

    -0.2832   6.6345   9.5639  12.6877  15.0382

          k = 0.0000-0.3000 0.6000 (   208 PWs)   bands (ev):

     1.0257   4.4453   9.0785  12.3473  16.0828

          k =-0.1000-0.1000 0.5000 (   204 PWs)   bands (ev):

    -0.4512   7.8044   8.8376  13.3876  13.4194

          k =-0.1000-0.2000 0.6000 (   207 PWs)   bands (ev):

     0.8633   5.5236   7.9820  12.8921  14.4142

          k =-0.1000 0.7000-0.3000 (   210 PWs)   bands (ev):

     1.9070   4.0891   7.7329  12.7144  15.3368

          k =-0.2000 0.8000-0.3000 (   205 PWs)   bands (ev):

     2.3095   4.1559   6.8455  13.5275  14.5926

          k =-0.3000 0.3000 0.3000 (   198 PWs)   bands (ev):

    -0.4831   7.9360   7.9360  10.1817  20.0834

          k = 0.6000-0.6000 0.3000 (   198 PWs)   bands (ev):

     0.8293   5.4160   7.2038   9.6595  21.1627

          k = 0.5000-0.5000 0.3000 (   206 PWs)   bands (ev):

     1.9185   3.8967   6.9577   9.5022  21.0839

          k = 0.5000-0.6000 0.4000 (   204 PWs)   bands (ev):

     2.2993   4.1920   5.7739   9.2751  22.2608

          k = 0.0000 0.0000 0.5000 (   201 PWs)   bands (ev):

    -0.6300   9.1284   9.1284  11.6119  13.2237

          k = 0.0000-0.1000 0.6000 (   204 PWs)   bands (ev):

     0.5499   7.0720   8.1630  11.3895  13.2703

          k = 0.0000-0.2000 0.7000 (   208 PWs)   bands (ev):

     1.9584   4.9051   7.6736  11.5958  14.2023

          k =-0.1000-0.1000 0.7000 (   208 PWs)   bands (ev):

     1.9140   5.8190   7.0662  11.4298  13.1855

          k =-0.1000 0.8000-0.2000 (   208 PWs)   bands (ev):

     3.1468   4.4441   6.7118  11.9054  13.6090

          k = 0.5000-0.5000 0.5000 (   216 PWs)   bands (ev):

     3.9422   3.9422   3.9422   8.9616  24.3245

          k = 0.0000 0.0000 0.7000 (   212 PWs)   bands (ev):

     1.7792   7.1927   7.1927   9.5542  12.7427

          k = 0.0000-0.1000 0.8000 (   216 PWs)   bands (ev):

     3.3081   5.6521   6.7015   9.8855  12.0526

          k =-0.1000 0.9000-0.1000 (   212 PWs)   bands (ev):

     4.8178   4.8178   6.2283  10.4233  10.4233

          k = 0.0000 0.0000 0.9000 (   212 PWs)   bands (ev):

     4.9386   6.2101   6.2101   8.5253   9.7142

     the Fermi energy is     0.5887 ev

!    total energy              =      -0.69496212 Ry
     estimated scf accuracy    <          9.1E-10 Ry
     smearing contrib. (-TS)   =      -0.00007137 Ry
     internal energy E=F+TS    =      -0.69489075 Ry

     The total energy is F=E-TS. E is the sum of the following terms:
     one-electron contribution =       0.41748316 Ry
     hartree contribution      =       0.00106956 Ry
     xc contribution           =      -0.55009459 Ry
     ewald contribution        =      -0.56334887 Ry

     convergence has been achieved in   3 iterations

     Forces acting on atoms (cartesian axes, Ry/au):

     atom    1 type  1   force =     0.00000000    0.00000000    0.00000000

     Total force =     0.000000     Total SCF correction =     0.000000


     Computing stress (Cartesian axis) and pressure

          total   stress  (Ry/bohr**3)                   (kbar)     P=       -2.04
  -0.00001384  -0.00000000   0.00000000           -2.04       -0.00        0.00
  -0.00000000  -0.00001384  -0.00000000           -0.00       -2.04       -0.00
   0.00000000  -0.00000000  -0.00001384            0.00       -0.00       -2.04


     Writing all to output data dir ./QE-outdir/li.save/ :
     XML data file, charge density, pseudopotentials, collected wavefunctions

     init_run     :      0.04s CPU      0.06s WALL (       1 calls)
     electrons    :      0.13s CPU      0.22s WALL (       1 calls)
     forces       :      0.00s CPU      0.00s WALL (       1 calls)
     stress       :      0.02s CPU      0.02s WALL (       1 calls)

     Called by init_run:
     wfcinit      :      0.03s CPU      0.04s WALL (       1 calls)
     potinit      :      0.00s CPU      0.00s WALL (       1 calls)
     hinit0       :      0.01s CPU      0.01s WALL (       1 calls)

     Called by electrons:
     c_bands      :      0.12s CPU      0.20s WALL (       4 calls)
     sum_band     :      0.01s CPU      0.01s WALL (       4 calls)
     v_of_rho     :      0.00s CPU      0.00s WALL (       4 calls)
     mix_rho      :      0.00s CPU      0.00s WALL (       4 calls)

     Called by c_bands:
     init_us_2    :      0.01s CPU      0.01s WALL (     484 calls)
     cegterg      :      0.11s CPU      0.19s WALL (     176 calls)

     Called by *egterg:
     cdiaghg      :      0.07s CPU      0.16s WALL (     603 calls)
     h_psi        :      0.05s CPU      0.06s WALL (     691 calls)
     g_psi        :      0.00s CPU      0.00s WALL (     471 calls)

     Called by h_psi:
     h_psi:calbec :      0.00s CPU      0.00s WALL (     691 calls)
     vloc_psi     :      0.05s CPU      0.05s WALL (     691 calls)
                                        0.00s GPU  (     691 calls)
     add_vuspsi   :      0.00s CPU      0.00s WALL (     691 calls)

     General routines
     calbec       :      0.01s CPU      0.01s WALL (    1439 calls)
     fft          :      0.00s CPU      0.00s WALL (      65 calls)
     ffts         :      0.00s CPU      0.00s WALL (       4 calls)
     fftw         :      0.04s CPU      0.05s WALL (    7276 calls)

     Parallel routines

     PWSCF        :      0.20s CPU      0.31s WALL


   This run was terminated on:  23:33:20  31Jan2026            

=------------------------------------------------------------------------------=
   JOB DONE.
=------------------------------------------------------------------------------=
