
     Program PWSCF v.7.5 starts on 31Jan2026 at 23:33:22 

     This program is part of the open-source Quantum ESPRESSO suite
     for quantum simulation of materials; please cite
         "P. Giannozzi et al., J. Phys.:Condens. Matter 21 395502 (2009);
         "P. Giannozzi et al., J. Phys.:Condens. Matter 29 465901 (2017);
         "P. Giannozzi et al., J. Chem. Phys. 152 154105 (2020);
          URL http://www.quantum-espresso.org", 
     in publications or presentations arising from this work. More details at
     http://www.quantum-espresso.org/quote

     Parallel version (MPI), running on     1 processors

     MPI processes distributed on     1 nodes
     0 MiB available memory on the printing compute node when the environment starts

     Waiting for input...
     Reading input from standard input
     Message from routine read_cards :
     DEPRECATED: no units specified in ATOMIC_POSITIONS card
     Message from routine read_cards :
     ATOMIC_POSITIONS: units set to alat

     Current dimensions of program PWSCF are:
     Max number of different atomic species (ntypx) = 10
     Max number of k-points (npk) =  40000
     Max angular momentum in pseudopotentials (lmaxx) =  4
     file Li.pbe-mt_fhi.UPF: wavefunction(s)  2p 4f renormalized

     Subspace diagonalization in iterative solution of the eigenvalue problem:
     a serial algorithm will be used


     G-vector sticks info
     --------------------
     sticks:   dense  smooth     PW     G-vecs:    dense   smooth      PW
     Sum         197     197     67                 1721     1721     369

     Using Slab Decomposition



     bravais-lattice index     =            3
     lattice parameter (alat)  =       6.5600  a.u.
     unit-cell volume          =     141.1502 (a.u.)^3
     number of atoms/cell      =            1
     number of atomic types    =            1
     number of electrons       =         1.00
     number of Kohn-Sham states=            5
     kinetic-energy cutoff     =      20.0000  Ry
     charge density cutoff     =      80.0000  Ry
     scf convergence threshold =      1.0E-08
     mixing beta               =       0.7000
     number of iterations used =            8  plain     mixing
     Exchange-correlation= PBE
                           (   1   4   3   4   0   0   0)

     celldm(1)=   6.560000  celldm(2)=   0.000000  celldm(3)=   0.000000
     celldm(4)=   0.000000  celldm(5)=   0.000000  celldm(6)=   0.000000

     crystal axes: (cart. coord. in units of alat)
               a(1) = (   0.500000   0.500000   0.500000 )  
               a(2) = (  -0.500000   0.500000   0.500000 )  
               a(3) = (  -0.500000  -0.500000   0.500000 )  

     reciprocal axes: (cart. coord. in units 2 pi/alat)
               b(1) = (  1.000000  0.000000  1.000000 )  
               b(2) = ( -1.000000  1.000000  0.000000 )  
               b(3) = (  0.000000 -1.000000  1.000000 )  


     PseudoPot. # 1 for Li read from file:
     ./pseudopot/Li.pbe-mt_fhi.UPF
     MD5 check sum: 3419f5616d131090147e867976aae79b
     Pseudo is Norm-conserving + core correction, Zval =  1.0
     Generated using FHI98PP, converted with fhi2upf.x v.5.0.2
     Using radial grid of  433 points,  3 beta functions with: 
                l(1) =   0
                l(2) =   1
                l(3) =   3

     atomic species   valence    mass     pseudopotential
     Li                1.00     6.94000     Li( 1.00)

     48 Sym. Ops., with inversion, found



   Cartesian axes

     site n.     atom                  positions (alat units)
         1        Li     tau(   1) = (   0.0000000   0.0000000   0.0000000  )

     number of k points=    44  Methfessel-Paxton smearing, width (Ry)=  0.0100
                       cart. coord. in units 2pi/alat
        k(    1) = (   0.0000000   0.0000000   0.1000000), wk =   0.0120000
        k(    2) = (   0.0000000  -0.1000000   0.2000000), wk =   0.0480000
        k(    3) = (   0.0000000  -0.2000000   0.3000000), wk =   0.0480000
        k(    4) = (   0.0000000  -0.3000000   0.4000000), wk =   0.0480000
        k(    5) = (   0.0000000  -0.4000000   0.5000000), wk =   0.0480000
        k(    6) = (  -0.1000000   0.1000000   0.1000000), wk =   0.0160000
        k(    7) = (  -0.1000000  -0.1000000   0.3000000), wk =   0.0480000
        k(    8) = (  -0.1000000  -0.2000000   0.4000000), wk =   0.0960000
        k(    9) = (  -0.1000000  -0.3000000   0.5000000), wk =   0.0960000
        k(   10) = (  -0.1000000   0.6000000  -0.4000000), wk =   0.0480000
        k(   11) = (  -0.2000000   0.2000000   0.1000000), wk =   0.0480000
        k(   12) = (  -0.2000000  -0.2000000   0.5000000), wk =   0.0480000
        k(   13) = (  -0.2000000   0.7000000  -0.4000000), wk =   0.0960000
        k(   14) = (  -0.3000000   0.3000000   0.1000000), wk =   0.0480000
        k(   15) = (  -0.3000000   0.2000000   0.2000000), wk =   0.0480000
        k(   16) = (  -0.3000000   0.7000000  -0.3000000), wk =   0.0160000
        k(   17) = (  -0.4000000   0.4000000   0.1000000), wk =   0.0480000
        k(   18) = (  -0.4000000   0.3000000   0.2000000), wk =   0.0960000
        k(   19) = (   0.5000000  -0.5000000   0.1000000), wk =   0.0240000
        k(   20) = (   0.5000000  -0.6000000   0.2000000), wk =   0.0960000
        k(   21) = (   0.5000000  -0.7000000   0.3000000), wk =   0.0480000
        k(   22) = (   0.4000000  -0.6000000   0.3000000), wk =   0.0480000
        k(   23) = (   0.0000000   0.0000000   0.3000000), wk =   0.0120000
        k(   24) = (   0.0000000  -0.1000000   0.4000000), wk =   0.0480000
        k(   25) = (   0.0000000  -0.2000000   0.5000000), wk =   0.0480000
        k(   26) = (   0.0000000  -0.3000000   0.6000000), wk =   0.0480000
        k(   27) = (  -0.1000000  -0.1000000   0.5000000), wk =   0.0480000
        k(   28) = (  -0.1000000  -0.2000000   0.6000000), wk =   0.0960000
        k(   29) = (  -0.1000000   0.7000000  -0.3000000), wk =   0.0480000
        k(   30) = (  -0.2000000   0.8000000  -0.3000000), wk =   0.0480000
        k(   31) = (  -0.3000000   0.3000000   0.3000000), wk =   0.0160000
        k(   32) = (   0.6000000  -0.6000000   0.3000000), wk =   0.0480000
        k(   33) = (   0.5000000  -0.5000000   0.3000000), wk =   0.0240000
        k(   34) = (   0.5000000  -0.6000000   0.4000000), wk =   0.0480000
        k(   35) = (   0.0000000   0.0000000   0.5000000), wk =   0.0120000
        k(   36) = (   0.0000000  -0.1000000   0.6000000), wk =   0.0480000
        k(   37) = (   0.0000000  -0.2000000   0.7000000), wk =   0.0480000
        k(   38) = (  -0.1000000  -0.1000000   0.7000000), wk =   0.0480000
        k(   39) = (  -0.1000000   0.8000000  -0.2000000), wk =   0.0480000
        k(   40) = (   0.5000000  -0.5000000   0.5000000), wk =   0.0040000
        k(   41) = (   0.0000000   0.0000000   0.7000000), wk =   0.0120000
        k(   42) = (   0.0000000  -0.1000000   0.8000000), wk =   0.0480000
        k(   43) = (  -0.1000000   0.9000000  -0.1000000), wk =   0.0160000
        k(   44) = (   0.0000000   0.0000000   0.9000000), wk =   0.0120000

     Dense  grid:     1721 G-vectors     FFT dimensions: (  18,  18,  18)

     Estimated max dynamical RAM per process >       2.24 MB

     Initial potential from superposition of free atoms

     starting charge       0.9960, renormalised to       1.0000
     Starting wfcs are   16 randomized atomic wfcs

     total cpu time spent up to now is        0.1 secs

     Self-consistent Calculation

     iteration #  1     ecut=    20.00 Ry     beta= 0.70
     Davidson diagonalization with overlap
     ethr =  1.00E-02,  avg # of iterations =  4.6

     Threshold (ethr) on eigenvalues was too large:
     Diagonalizing with lowered threshold

     Davidson diagonalization with overlap
     ethr =  1.92E-05,  avg # of iterations =  4.0

     total cpu time spent up to now is        0.3 secs

     total energy              =      -0.69477159 Ry
     estimated scf accuracy    <       0.00019067 Ry

     iteration #  2     ecut=    20.00 Ry     beta= 0.70
     Davidson diagonalization with overlap
     ethr =  1.91E-05,  avg # of iterations =  1.0

     total cpu time spent up to now is        0.3 secs

     total energy              =      -0.69477092 Ry
     estimated scf accuracy    <       0.00001714 Ry

     iteration #  3     ecut=    20.00 Ry     beta= 0.70
     Davidson diagonalization with overlap
     ethr =  1.71E-06,  avg # of iterations =  1.3

     total cpu time spent up to now is        0.4 secs

     End of self-consistent calculation

          k = 0.0000 0.0000 0.1000 (   213 PWs)   bands (ev):

    -3.0427  14.1221  14.1221  14.3886  18.1676

          k = 0.0000-0.1000 0.2000 (   210 PWs)   bands (ev):

    -2.6630  11.9745  12.8385  13.8728  16.5095

          k = 0.0000-0.2000 0.3000 (   211 PWs)   bands (ev):

    -1.9063   8.9126  11.5737  13.0836  15.7995

          k = 0.0000-0.3000 0.4000 (   210 PWs)   bands (ev):

    -0.7999   6.0934  10.6741  12.3892  14.8242

          k = 0.0000-0.4000 0.5000 (   209 PWs)   bands (ev):

     0.4412   3.9699  10.2146  12.0079  14.3339

          k =-0.1000 0.1000 0.1000 (   213 PWs)   bands (ev):

    -2.8532  13.1541  13.5155  13.5156  17.4712

          k =-0.1000-0.1000 0.3000 (   211 PWs)   bands (ev):

    -2.0924  10.2853  10.8232  13.2108  15.6546

          k =-0.1000-0.2000 0.4000 (   209 PWs)   bands (ev):

    -1.1486   7.5140   9.6339  12.4618  15.6539

          k =-0.1000-0.3000 0.5000 (   211 PWs)   bands (ev):

     0.1036   4.9955   8.9717  11.8982  15.7030

          k =-0.1000 0.6000-0.4000 (   214 PWs)   bands (ev):

     1.0354   3.6303   8.7503  11.6968  15.6434

          k =-0.2000 0.2000 0.1000 (   210 PWs)   bands (ev):

    -2.2849  10.4916  12.0158  12.3474  16.9709

          k =-0.2000-0.2000 0.5000 (   216 PWs)   bands (ev):

    -0.0244   5.8891   7.8026  11.9996  15.9001

          k =-0.2000 0.7000-0.4000 (   215 PWs)   bands (ev):

     1.3302   3.9994   7.0992  11.7137  16.3963

          k =-0.3000 0.3000 0.1000 (   210 PWs)   bands (ev):

    -1.3462   7.4628  11.0449  11.3204  16.2759

          k =-0.3000 0.2000 0.2000 (   210 PWs)   bands (ev):

    -1.5285   8.7666   9.7222  11.1545  17.7775

          k =-0.3000 0.7000-0.3000 (   212 PWs)   bands (ev):

     2.7453   2.7453   6.3532  11.6524  17.6635

          k =-0.4000 0.4000 0.1000 (   207 PWs)   bands (ev):

    -0.1080   4.9092  10.4353  10.6637  15.7139

          k =-0.4000 0.3000 0.2000 (   210 PWs)   bands (ev):

    -0.4109   6.1861   8.6290  10.4593  17.8762

          k = 0.5000-0.5000 0.1000 (   212 PWs)   bands (ev):

     0.7917   3.5644  10.2279  10.4397  15.5106

          k = 0.5000-0.6000 0.2000 (   210 PWs)   bands (ev):

     0.8926   4.0376   8.1595  10.1020  17.7356

          k = 0.5000-0.7000 0.3000 (   214 PWs)   bands (ev):

     0.8736   4.7010   6.9274  10.0365  19.2391

          k = 0.4000-0.6000 0.3000 (   214 PWs)   bands (ev):

     2.0185   3.3740   6.4638   9.8929  19.3147

          k = 0.0000 0.0000 0.3000 (   213 PWs)   bands (ev):

    -2.2796  11.4202  11.4202  13.3583  14.1816

          k = 0.0000-0.1000 0.4000 (   214 PWs)   bands (ev):

    -1.5149   9.0404  10.0978  12.7902  13.6980

          k = 0.0000-0.2000 0.5000 (   215 PWs)   bands (ev):

    -0.3910   6.3212   9.1729  12.1704  14.4858

          k = 0.0000-0.3000 0.6000 (   211 PWs)   bands (ev):

     0.9002   4.1790   8.7031  11.8390  15.4943

          k =-0.1000-0.1000 0.5000 (   213 PWs)   bands (ev):

    -0.5573   7.4770   8.4483  12.8345  12.9328

          k =-0.1000-0.2000 0.6000 (   215 PWs)   bands (ev):

     0.7321   5.2540   7.6157  12.3744  13.8807

          k =-0.1000 0.7000-0.3000 (   212 PWs)   bands (ev):

     1.7639   3.8437   7.3744  12.2009  14.7747

          k =-0.2000 0.8000-0.3000 (   217 PWs)   bands (ev):

     2.1477   3.9430   6.4799  12.9852  14.0672

          k =-0.3000 0.3000 0.3000 (   210 PWs)   bands (ev):

    -0.5864   7.6072   7.6072   9.6957  19.3607

          k = 0.6000-0.6000 0.3000 (   212 PWs)   bands (ev):

     0.7008   5.1558   6.8977   9.1759  20.1457

          k = 0.5000-0.5000 0.3000 (   214 PWs)   bands (ev):

     1.7754   3.6663   6.6594   9.0194  20.3325

          k = 0.5000-0.6000 0.4000 (   218 PWs)   bands (ev):

     2.1388   3.9789   5.4996   8.7845  21.4588

          k = 0.0000 0.0000 0.5000 (   209 PWs)   bands (ev):

    -0.7336   8.7524   8.7524  11.1893  12.6464

          k = 0.0000-0.1000 0.6000 (   216 PWs)   bands (ev):

     0.4214   6.7566   7.8168  10.9572  12.6964

          k = 0.0000-0.2000 0.7000 (   216 PWs)   bands (ev):

     1.8045   4.6419   7.3429  11.1203  13.6381

          k =-0.1000-0.1000 0.7000 (   220 PWs)   bands (ev):

     1.7551   5.5528   6.7329  11.0042  12.6141

          k =-0.1000 0.8000-0.2000 (   218 PWs)   bands (ev):

     2.9652   4.2098   6.3840  11.4466  13.1146

          k = 0.5000-0.5000 0.5000 (   216 PWs)   bands (ev):

     3.7372   3.7372   3.7372   8.4569  23.4591

          k = 0.0000 0.0000 0.7000 (   220 PWs)   bands (ev):

     1.6206   6.8771   6.8771   9.1939  12.1711

          k = 0.0000-0.1000 0.8000 (   220 PWs)   bands (ev):

     3.1135   5.3809   6.4014   9.5037  11.5800

          k =-0.1000 0.9000-0.1000 (   224 PWs)   bands (ev):

     4.5826   4.5826   5.9268  10.0284  10.0284

          k = 0.0000 0.0000 0.9000 (   228 PWs)   bands (ev):

     4.6955   5.9244   5.9244   8.1961   9.3394

     the Fermi energy is     0.4699 ev

!    total energy              =      -0.69477101 Ry
     estimated scf accuracy    <          1.1E-09 Ry
     smearing contrib. (-TS)   =      -0.00006119 Ry
     internal energy E=F+TS    =      -0.69470983 Ry

     The total energy is F=E-TS. E is the sum of the following terms:
     one-electron contribution =       0.40348801 Ry
     hartree contribution      =       0.00099297 Ry
     xc contribution           =      -0.54442958 Ry
     ewald contribution        =      -0.55476123 Ry

     convergence has been achieved in   3 iterations

     Forces acting on atoms (cartesian axes, Ry/au):

     atom    1 type  1   force =     0.00000000    0.00000000    0.00000000

     Total force =     0.000000     Total SCF correction =     0.000000


     Computing stress (Cartesian axis) and pressure

          total   stress  (Ry/bohr**3)                   (kbar)     P=       -7.48
  -0.00005088  -0.00000000   0.00000000           -7.48       -0.00        0.00
   0.00000000  -0.00005088   0.00000000            0.00       -7.48        0.00
   0.00000000  -0.00000000  -0.00005088            0.00       -0.00       -7.48


     Writing all to output data dir ./QE-outdir/li.save/ :
     XML data file, charge density, pseudopotentials, collected wavefunctions

     init_run     :      0.06s CPU      0.08s WALL (       1 calls)
     electrons    :      0.22s CPU      0.31s WALL (       1 calls)
     forces       :      0.00s CPU      0.00s WALL (       1 calls)
     stress       :      0.03s CPU      0.03s WALL (       1 calls)

     Called by init_run:
     wfcinit      :      0.05s CPU      0.06s WALL (       1 calls)
     potinit      :      0.00s CPU      0.00s WALL (       1 calls)
     hinit0       :      0.01s CPU      0.01s WALL (       1 calls)

     Called by electrons:
     c_bands      :      0.19s CPU      0.28s WALL (       4 calls)
     sum_band     :      0.03s CPU      0.03s WALL (       4 calls)
     v_of_rho     :      0.00s CPU      0.00s WALL (       4 calls)
     mix_rho      :      0.00s CPU      0.00s WALL (       4 calls)

     Called by c_bands:
     init_us_2    :      0.01s CPU      0.01s WALL (     484 calls)
     cegterg      :      0.18s CPU      0.27s WALL (     176 calls)

     Called by *egterg:
     cdiaghg      :      0.07s CPU      0.17s WALL (     610 calls)
     h_psi        :      0.14s CPU      0.15s WALL (     698 calls)
     g_psi        :      0.00s CPU      0.00s WALL (     478 calls)

     Called by h_psi:
     h_psi:calbec :      0.00s CPU      0.00s WALL (     698 calls)
     vloc_psi     :      0.14s CPU      0.14s WALL (     698 calls)
                                        0.00s GPU  (     698 calls)
     add_vuspsi   :      0.00s CPU      0.00s WALL (     698 calls)

     General routines
     calbec       :      0.01s CPU      0.01s WALL (    1446 calls)
     fft          :      0.00s CPU      0.00s WALL (      65 calls)
     ffts         :      0.00s CPU      0.00s WALL (       4 calls)
     fftw         :      0.14s CPU      0.14s WALL (    7320 calls)

     Parallel routines

     PWSCF        :      0.32s CPU      0.43s WALL


   This run was terminated on:  23:33:22  31Jan2026            

=------------------------------------------------------------------------------=
   JOB DONE.
=------------------------------------------------------------------------------=
