
     Program PWSCF v.7.5 starts on 26Jan2026 at 14: 5: 9 

     This program is part of the open-source Quantum ESPRESSO suite
     for quantum simulation of materials; please cite
         "P. Giannozzi et al., J. Phys.:Condens. Matter 21 395502 (2009);
         "P. Giannozzi et al., J. Phys.:Condens. Matter 29 465901 (2017);
         "P. Giannozzi et al., J. Chem. Phys. 152 154105 (2020);
          URL http://www.quantum-espresso.org", 
     in publications or presentations arising from this work. More details at
     http://www.quantum-espresso.org/quote

     Parallel version (MPI), running on     1 processors

     MPI processes distributed on     1 nodes
     0 MiB available memory on the printing compute node when the environment starts

     Waiting for input...
     Reading input from standard input
     Message from routine read_cards :
     DEPRECATED: no units specified in ATOMIC_POSITIONS card
     Message from routine read_cards :
     ATOMIC_POSITIONS: units set to alat

     Current dimensions of program PWSCF are:
     Max number of different atomic species (ntypx) = 10
     Max number of k-points (npk) =  40000
     Max angular momentum in pseudopotentials (lmaxx) =  4
     file Li.pbe-mt_fhi.UPF: wavefunction(s)  2p 4f renormalized

     Subspace diagonalization in iterative solution of the eigenvalue problem:
     a serial algorithm will be used


     G-vector sticks info
     --------------------
     sticks:   dense  smooth     PW     G-vecs:    dense   smooth      PW
     Sum         219     219     77                 2093     2093     429

     Using Slab Decomposition



     bravais-lattice index     =            3
     lattice parameter (alat)  =       7.0000  a.u.
     unit-cell volume          =     171.5000 (a.u.)^3
     number of atoms/cell      =            1
     number of atomic types    =            1
     number of electrons       =         1.00
     number of Kohn-Sham states=            5
     kinetic-energy cutoff     =      20.0000  Ry
     charge density cutoff     =      80.0000  Ry
     scf convergence threshold =      1.0E-08
     mixing beta               =       0.7000
     number of iterations used =            8  plain     mixing
     Exchange-correlation= PBE
                           (   1   4   3   4   0   0   0)

     celldm(1)=   7.000000  celldm(2)=   0.000000  celldm(3)=   0.000000
     celldm(4)=   0.000000  celldm(5)=   0.000000  celldm(6)=   0.000000

     crystal axes: (cart. coord. in units of alat)
               a(1) = (   0.500000   0.500000   0.500000 )  
               a(2) = (  -0.500000   0.500000   0.500000 )  
               a(3) = (  -0.500000  -0.500000   0.500000 )  

     reciprocal axes: (cart. coord. in units 2 pi/alat)
               b(1) = (  1.000000  0.000000  1.000000 )  
               b(2) = ( -1.000000  1.000000  0.000000 )  
               b(3) = (  0.000000 -1.000000  1.000000 )  


     PseudoPot. # 1 for Li read from file:
     ./pseudopot/Li.pbe-mt_fhi.UPF
     MD5 check sum: 3419f5616d131090147e867976aae79b
     Pseudo is Norm-conserving + core correction, Zval =  1.0
     Generated using FHI98PP, converted with fhi2upf.x v.5.0.2
     Using radial grid of  433 points,  3 beta functions with: 
                l(1) =   0
                l(2) =   1
                l(3) =   3

     atomic species   valence    mass     pseudopotential
     Li                1.00     6.94000     Li( 1.00)

     48 Sym. Ops., with inversion, found



   Cartesian axes

     site n.     atom                  positions (alat units)
         1        Li     tau(   1) = (   0.0000000   0.0000000   0.0000000  )

     number of k points=    44  Methfessel-Paxton smearing, width (Ry)=  0.0100
                       cart. coord. in units 2pi/alat
        k(    1) = (   0.0000000   0.0000000   0.1000000), wk =   0.0120000
        k(    2) = (   0.0000000  -0.1000000   0.2000000), wk =   0.0480000
        k(    3) = (   0.0000000  -0.2000000   0.3000000), wk =   0.0480000
        k(    4) = (   0.0000000  -0.3000000   0.4000000), wk =   0.0480000
        k(    5) = (   0.0000000  -0.4000000   0.5000000), wk =   0.0480000
        k(    6) = (  -0.1000000   0.1000000   0.1000000), wk =   0.0160000
        k(    7) = (  -0.1000000  -0.1000000   0.3000000), wk =   0.0480000
        k(    8) = (  -0.1000000  -0.2000000   0.4000000), wk =   0.0960000
        k(    9) = (  -0.1000000  -0.3000000   0.5000000), wk =   0.0960000
        k(   10) = (  -0.1000000   0.6000000  -0.4000000), wk =   0.0480000
        k(   11) = (  -0.2000000   0.2000000   0.1000000), wk =   0.0480000
        k(   12) = (  -0.2000000  -0.2000000   0.5000000), wk =   0.0480000
        k(   13) = (  -0.2000000   0.7000000  -0.4000000), wk =   0.0960000
        k(   14) = (  -0.3000000   0.3000000   0.1000000), wk =   0.0480000
        k(   15) = (  -0.3000000   0.2000000   0.2000000), wk =   0.0480000
        k(   16) = (  -0.3000000   0.7000000  -0.3000000), wk =   0.0160000
        k(   17) = (  -0.4000000   0.4000000   0.1000000), wk =   0.0480000
        k(   18) = (  -0.4000000   0.3000000   0.2000000), wk =   0.0960000
        k(   19) = (   0.5000000  -0.5000000   0.1000000), wk =   0.0240000
        k(   20) = (   0.5000000  -0.6000000   0.2000000), wk =   0.0960000
        k(   21) = (   0.5000000  -0.7000000   0.3000000), wk =   0.0480000
        k(   22) = (   0.4000000  -0.6000000   0.3000000), wk =   0.0480000
        k(   23) = (   0.0000000   0.0000000   0.3000000), wk =   0.0120000
        k(   24) = (   0.0000000  -0.1000000   0.4000000), wk =   0.0480000
        k(   25) = (   0.0000000  -0.2000000   0.5000000), wk =   0.0480000
        k(   26) = (   0.0000000  -0.3000000   0.6000000), wk =   0.0480000
        k(   27) = (  -0.1000000  -0.1000000   0.5000000), wk =   0.0480000
        k(   28) = (  -0.1000000  -0.2000000   0.6000000), wk =   0.0960000
        k(   29) = (  -0.1000000   0.7000000  -0.3000000), wk =   0.0480000
        k(   30) = (  -0.2000000   0.8000000  -0.3000000), wk =   0.0480000
        k(   31) = (  -0.3000000   0.3000000   0.3000000), wk =   0.0160000
        k(   32) = (   0.6000000  -0.6000000   0.3000000), wk =   0.0480000
        k(   33) = (   0.5000000  -0.5000000   0.3000000), wk =   0.0240000
        k(   34) = (   0.5000000  -0.6000000   0.4000000), wk =   0.0480000
        k(   35) = (   0.0000000   0.0000000   0.5000000), wk =   0.0120000
        k(   36) = (   0.0000000  -0.1000000   0.6000000), wk =   0.0480000
        k(   37) = (   0.0000000  -0.2000000   0.7000000), wk =   0.0480000
        k(   38) = (  -0.1000000  -0.1000000   0.7000000), wk =   0.0480000
        k(   39) = (  -0.1000000   0.8000000  -0.2000000), wk =   0.0480000
        k(   40) = (   0.5000000  -0.5000000   0.5000000), wk =   0.0040000
        k(   41) = (   0.0000000   0.0000000   0.7000000), wk =   0.0120000
        k(   42) = (   0.0000000  -0.1000000   0.8000000), wk =   0.0480000
        k(   43) = (  -0.1000000   0.9000000  -0.1000000), wk =   0.0160000
        k(   44) = (   0.0000000   0.0000000   0.9000000), wk =   0.0120000

     Dense  grid:     2093 G-vectors     FFT dimensions: (  18,  18,  18)

     Estimated max dynamical RAM per process >       2.58 MB

     Initial potential from superposition of free atoms

     starting charge       0.9960, renormalised to       1.0000
     Starting wfcs are   16 randomized atomic wfcs

     total cpu time spent up to now is        0.1 secs

     Self-consistent Calculation

     iteration #  1     ecut=    20.00 Ry     beta= 0.70
     Davidson diagonalization with overlap
     ethr =  1.00E-02,  avg # of iterations =  5.2

     Threshold (ethr) on eigenvalues was too large:
     Diagonalizing with lowered threshold

     Davidson diagonalization with overlap
     ethr =  1.65E-05,  avg # of iterations =  4.5

     total cpu time spent up to now is        0.3 secs

     total energy              =      -0.69142198 Ry
     estimated scf accuracy    <       0.00016621 Ry

     iteration #  2     ecut=    20.00 Ry     beta= 0.70
     Davidson diagonalization with overlap
     ethr =  1.66E-05,  avg # of iterations =  1.0

     total cpu time spent up to now is        0.4 secs

     total energy              =      -0.69142365 Ry
     estimated scf accuracy    <       0.00001536 Ry

     iteration #  3     ecut=    20.00 Ry     beta= 0.70
     Davidson diagonalization with overlap
     ethr =  1.54E-06,  avg # of iterations =  1.2

     total cpu time spent up to now is        0.4 secs

     End of self-consistent calculation

          k = 0.0000 0.0000 0.1000 (   249 PWs)   bands (ev):

    -3.2315  11.9141  11.9141  12.1232  15.6760

          k = 0.0000-0.1000 0.2000 (   256 PWs)   bands (ev):

    -2.8817  10.0639  10.8191  11.6920  14.1619

          k = 0.0000-0.2000 0.3000 (   263 PWs)   bands (ev):

    -2.1851   7.3833   9.7238  11.0319  13.5531

          k = 0.0000-0.3000 0.4000 (   259 PWs)   bands (ev):

    -1.1629   4.8761   8.9412  10.4418  12.6975

          k = 0.0000-0.4000 0.5000 (   265 PWs)   bands (ev):

     0.0139   2.9324   8.5403  10.1146  12.2673

          k =-0.1000 0.1000 0.1000 (   246 PWs)   bands (ev):

    -3.0568  11.0436  11.4223  11.4223  14.9905

          k =-0.1000-0.1000 0.3000 (   257 PWs)   bands (ev):

    -2.3570   8.6511   9.0100  11.1295  13.4125

          k =-0.1000-0.2000 0.4000 (   262 PWs)   bands (ev):

    -1.4894   6.1827   7.9835  10.5010  13.3777

          k =-0.1000-0.3000 0.5000 (   265 PWs)   bands (ev):

    -0.3292   3.9173   7.4061  10.0208  13.3662

          k =-0.1000 0.6000-0.4000 (   264 PWs)   bands (ev):

     0.5729   2.6371   7.2127   9.8487  13.3018

          k =-0.2000 0.2000 0.1000 (   262 PWs)   bands (ev):

    -2.5333   8.7808  10.0627  10.4403  14.5211

          k =-0.2000-0.2000 0.5000 (   260 PWs)   bands (ev):

    -0.4583   4.8234   6.2654  10.1056  13.6207

          k =-0.2000 0.7000-0.4000 (   260 PWs)   bands (ev):

     0.7969   3.1113   5.6344   9.8572  14.0105

          k =-0.3000 0.3000 0.1000 (   259 PWs)   bands (ev):

    -1.6685   6.1099   9.2027   9.5605  13.9254

          k =-0.3000 0.2000 0.2000 (   262 PWs)   bands (ev):

    -1.8376   7.3383   8.0412   9.3201  15.1668

          k =-0.3000 0.7000-0.3000 (   261 PWs)   bands (ev):

     2.0714   2.0714   4.8826   9.7981  15.1683

          k =-0.4000 0.4000 0.1000 (   259 PWs)   bands (ev):

    -0.5173   3.8163   8.6653   8.9928  13.4424

          k =-0.4000 0.3000 0.2000 (   260 PWs)   bands (ev):

    -0.8093   5.0289   7.1065   8.6824  15.2537

          k = 0.5000-0.5000 0.1000 (   262 PWs)   bands (ev):

     0.3595   2.5527   8.4830   8.7989  13.2671

          k = 0.5000-0.6000 0.2000 (   260 PWs)   bands (ev):

     0.4113   3.0684   6.7045   8.3555  15.1347

          k = 0.5000-0.7000 0.3000 (   254 PWs)   bands (ev):

     0.3684   3.7856   5.5173   8.2748  16.3285

          k = 0.4000-0.6000 0.3000 (   264 PWs)   bands (ev):

     1.4350   2.5783   5.0948   8.1359  16.4841

          k = 0.0000 0.0000 0.3000 (   257 PWs)   bands (ev):

    -2.5299   9.6060   9.6060  11.1543  12.1755

          k = 0.0000-0.1000 0.4000 (   258 PWs)   bands (ev):

    -1.8287   7.5230   8.4579  10.6961  11.6724

          k = 0.0000-0.2000 0.5000 (   259 PWs)   bands (ev):

    -0.7959   5.1083   7.6515  10.1594  12.3392

          k = 0.0000-0.3000 0.6000 (   257 PWs)   bands (ev):

     0.4165   3.1563   7.2413   9.8640  13.1996

          k =-0.1000-0.1000 0.5000 (   256 PWs)   bands (ev):

    -0.9534   6.2033   6.9368  10.6862  11.0406

          k =-0.1000-0.2000 0.6000 (   261 PWs)   bands (ev):

     0.2302   4.2075   6.1990  10.3531  11.8111

          k =-0.1000 0.7000-0.3000 (   259 PWs)   bands (ev):

     1.2109   2.8935   5.9887  10.2011  12.5856

          k =-0.2000 0.8000-0.3000 (   257 PWs)   bands (ev):

     1.5225   3.1190   5.0723  10.8706  12.0251

          k =-0.3000 0.3000 0.3000 (   261 PWs)   bands (ev):

    -0.9728   6.3287   6.3287   7.8244  16.5472

          k = 0.6000-0.6000 0.3000 (   261 PWs)   bands (ev):

     0.2089   4.1460   5.7094   7.3225  17.2323

          k = 0.5000-0.5000 0.3000 (   258 PWs)   bands (ev):

     1.2221   2.7722   5.5015   7.1728  17.4058

          k = 0.5000-0.6000 0.4000 (   261 PWs)   bands (ev):

     1.5182   3.1536   4.4297   6.9166  18.3419

          k = 0.0000 0.0000 0.5000 (   249 PWs)   bands (ev):

    -1.1180   7.2881   7.2881   9.5477  10.4070

          k = 0.0000-0.1000 0.6000 (   257 PWs)   bands (ev):

    -0.0666   5.5320   6.4716   9.2677  10.4829

          k = 0.0000-0.2000 0.7000 (   257 PWs)   bands (ev):

     1.2099   3.6243   6.0574   9.2616  11.4549

          k =-0.1000-0.1000 0.7000 (   254 PWs)   bands (ev):

     1.1430   4.5209   5.4408   9.3515  10.3899

          k =-0.1000 0.8000-0.2000 (   254 PWs)   bands (ev):

     2.2619   3.2993   5.1159   9.6506  11.1921

          k = 0.5000-0.5000 0.5000 (   276 PWs)   bands (ev):

     2.9418   2.9418   2.9418   6.5288  20.0820

          k = 0.0000 0.0000 0.7000 (   249 PWs)   bands (ev):

     1.0107   5.6514   5.6514   7.7955   9.9399

          k = 0.0000-0.1000 0.8000 (   250 PWs)   bands (ev):

     2.3599   4.3277   5.2352   8.0185   9.7145

          k =-0.1000 0.9000-0.1000 (   245 PWs)   bands (ev):

     3.6716   3.6716   4.7543   8.4961   8.4961

          k = 0.0000 0.0000 0.9000 (   245 PWs)   bands (ev):

     3.7512   4.8188   4.8188   6.9193   7.8821

     the Fermi energy is     0.0233 ev

!    total energy              =      -0.69142381 Ry
     estimated scf accuracy    <          2.4E-09 Ry
     smearing contrib. (-TS)   =       0.00001005 Ry
     internal energy E=F+TS    =      -0.69143386 Ry

     The total energy is F=E-TS. E is the sum of the following terms:
     one-electron contribution =       0.34936733 Ry
     hartree contribution      =       0.00068800 Ry
     xc contribution           =      -0.52159865 Ry
     ewald contribution        =      -0.51989053 Ry

     convergence has been achieved in   3 iterations

     Forces acting on atoms (cartesian axes, Ry/au):

     atom    1 type  1   force =     0.00000000    0.00000000    0.00000000

     Total force =     0.000000     Total SCF correction =     0.000000


     Computing stress (Cartesian axis) and pressure

          total   stress  (Ry/bohr**3)                   (kbar)     P=      -22.93
  -0.00015590   0.00000000  -0.00000000          -22.93        0.00       -0.00
   0.00000000  -0.00015590   0.00000000            0.00      -22.93        0.00
  -0.00000000   0.00000000  -0.00015590           -0.00        0.00      -22.93


     Writing all to output data dir ./QE-outdir/li.save/ :
     XML data file, charge density, pseudopotentials, collected wavefunctions

     init_run     :      0.07s CPU      0.09s WALL (       1 calls)
     electrons    :      0.24s CPU      0.35s WALL (       1 calls)
     forces       :      0.00s CPU      0.00s WALL (       1 calls)
     stress       :      0.03s CPU      0.03s WALL (       1 calls)

     Called by init_run:
     wfcinit      :      0.05s CPU      0.07s WALL (       1 calls)
     potinit      :      0.00s CPU      0.00s WALL (       1 calls)
     hinit0       :      0.01s CPU      0.01s WALL (       1 calls)

     Called by electrons:
     c_bands      :      0.21s CPU      0.32s WALL (       4 calls)
     sum_band     :      0.03s CPU      0.03s WALL (       4 calls)
     v_of_rho     :      0.00s CPU      0.00s WALL (       4 calls)
     mix_rho      :      0.00s CPU      0.00s WALL (       4 calls)

     Called by c_bands:
     init_us_2    :      0.01s CPU      0.01s WALL (     484 calls)
     cegterg      :      0.20s CPU      0.31s WALL (     176 calls)

     Called by *egterg:
     cdiaghg      :      0.07s CPU      0.19s WALL (     658 calls)
     h_psi        :      0.16s CPU      0.17s WALL (     746 calls)
     g_psi        :      0.00s CPU      0.00s WALL (     526 calls)

     Called by h_psi:
     h_psi:calbec :      0.00s CPU      0.00s WALL (     746 calls)
     vloc_psi     :      0.15s CPU      0.16s WALL (     746 calls)
                                        0.00s GPU  (     746 calls)
     add_vuspsi   :      0.00s CPU      0.00s WALL (     746 calls)

     General routines
     calbec       :      0.01s CPU      0.01s WALL (    1494 calls)
     fft          :      0.00s CPU      0.00s WALL (      65 calls)
     ffts         :      0.00s CPU      0.00s WALL (       4 calls)
     fftw         :      0.16s CPU      0.16s WALL (    7550 calls)

     Parallel routines

     PWSCF        :      0.36s CPU      0.48s WALL


   This run was terminated on:  14: 5: 9  26Jan2026            

=------------------------------------------------------------------------------=
   JOB DONE.
=------------------------------------------------------------------------------=
