
     Program PWSCF v.7.5 starts on 26Jan2026 at 14: 5: 4 

     This program is part of the open-source Quantum ESPRESSO suite
     for quantum simulation of materials; please cite
         "P. Giannozzi et al., J. Phys.:Condens. Matter 21 395502 (2009);
         "P. Giannozzi et al., J. Phys.:Condens. Matter 29 465901 (2017);
         "P. Giannozzi et al., J. Chem. Phys. 152 154105 (2020);
          URL http://www.quantum-espresso.org", 
     in publications or presentations arising from this work. More details at
     http://www.quantum-espresso.org/quote

     Parallel version (MPI), running on     1 processors

     MPI processes distributed on     1 nodes
     0 MiB available memory on the printing compute node when the environment starts

     Waiting for input...
     Reading input from standard input
     Message from routine read_cards :
     DEPRECATED: no units specified in ATOMIC_POSITIONS card
     Message from routine read_cards :
     ATOMIC_POSITIONS: units set to alat

     Current dimensions of program PWSCF are:
     Max number of different atomic species (ntypx) = 10
     Max number of k-points (npk) =  40000
     Max angular momentum in pseudopotentials (lmaxx) =  4
     file Li.pbe-mt_fhi.UPF: wavefunction(s)  2p 4f renormalized

     Subspace diagonalization in iterative solution of the eigenvalue problem:
     a serial algorithm will be used


     G-vector sticks info
     --------------------
     sticks:   dense  smooth     PW     G-vecs:    dense   smooth      PW
     Sum         197     197     67                 1721     1721     369

     Using Slab Decomposition



     bravais-lattice index     =            3
     lattice parameter (alat)  =       6.5500  a.u.
     unit-cell volume          =     140.5057 (a.u.)^3
     number of atoms/cell      =            1
     number of atomic types    =            1
     number of electrons       =         1.00
     number of Kohn-Sham states=            5
     kinetic-energy cutoff     =      20.0000  Ry
     charge density cutoff     =      80.0000  Ry
     scf convergence threshold =      1.0E-08
     mixing beta               =       0.7000
     number of iterations used =            8  plain     mixing
     Exchange-correlation= PBE
                           (   1   4   3   4   0   0   0)

     celldm(1)=   6.550000  celldm(2)=   0.000000  celldm(3)=   0.000000
     celldm(4)=   0.000000  celldm(5)=   0.000000  celldm(6)=   0.000000

     crystal axes: (cart. coord. in units of alat)
               a(1) = (   0.500000   0.500000   0.500000 )  
               a(2) = (  -0.500000   0.500000   0.500000 )  
               a(3) = (  -0.500000  -0.500000   0.500000 )  

     reciprocal axes: (cart. coord. in units 2 pi/alat)
               b(1) = (  1.000000  0.000000  1.000000 )  
               b(2) = ( -1.000000  1.000000  0.000000 )  
               b(3) = (  0.000000 -1.000000  1.000000 )  


     PseudoPot. # 1 for Li read from file:
     ./pseudopot/Li.pbe-mt_fhi.UPF
     MD5 check sum: 3419f5616d131090147e867976aae79b
     Pseudo is Norm-conserving + core correction, Zval =  1.0
     Generated using FHI98PP, converted with fhi2upf.x v.5.0.2
     Using radial grid of  433 points,  3 beta functions with: 
                l(1) =   0
                l(2) =   1
                l(3) =   3

     atomic species   valence    mass     pseudopotential
     Li                1.00     6.94000     Li( 1.00)

     48 Sym. Ops., with inversion, found



   Cartesian axes

     site n.     atom                  positions (alat units)
         1        Li     tau(   1) = (   0.0000000   0.0000000   0.0000000  )

     number of k points=    44  Methfessel-Paxton smearing, width (Ry)=  0.0100
                       cart. coord. in units 2pi/alat
        k(    1) = (   0.0000000   0.0000000   0.1000000), wk =   0.0120000
        k(    2) = (   0.0000000  -0.1000000   0.2000000), wk =   0.0480000
        k(    3) = (   0.0000000  -0.2000000   0.3000000), wk =   0.0480000
        k(    4) = (   0.0000000  -0.3000000   0.4000000), wk =   0.0480000
        k(    5) = (   0.0000000  -0.4000000   0.5000000), wk =   0.0480000
        k(    6) = (  -0.1000000   0.1000000   0.1000000), wk =   0.0160000
        k(    7) = (  -0.1000000  -0.1000000   0.3000000), wk =   0.0480000
        k(    8) = (  -0.1000000  -0.2000000   0.4000000), wk =   0.0960000
        k(    9) = (  -0.1000000  -0.3000000   0.5000000), wk =   0.0960000
        k(   10) = (  -0.1000000   0.6000000  -0.4000000), wk =   0.0480000
        k(   11) = (  -0.2000000   0.2000000   0.1000000), wk =   0.0480000
        k(   12) = (  -0.2000000  -0.2000000   0.5000000), wk =   0.0480000
        k(   13) = (  -0.2000000   0.7000000  -0.4000000), wk =   0.0960000
        k(   14) = (  -0.3000000   0.3000000   0.1000000), wk =   0.0480000
        k(   15) = (  -0.3000000   0.2000000   0.2000000), wk =   0.0480000
        k(   16) = (  -0.3000000   0.7000000  -0.3000000), wk =   0.0160000
        k(   17) = (  -0.4000000   0.4000000   0.1000000), wk =   0.0480000
        k(   18) = (  -0.4000000   0.3000000   0.2000000), wk =   0.0960000
        k(   19) = (   0.5000000  -0.5000000   0.1000000), wk =   0.0240000
        k(   20) = (   0.5000000  -0.6000000   0.2000000), wk =   0.0960000
        k(   21) = (   0.5000000  -0.7000000   0.3000000), wk =   0.0480000
        k(   22) = (   0.4000000  -0.6000000   0.3000000), wk =   0.0480000
        k(   23) = (   0.0000000   0.0000000   0.3000000), wk =   0.0120000
        k(   24) = (   0.0000000  -0.1000000   0.4000000), wk =   0.0480000
        k(   25) = (   0.0000000  -0.2000000   0.5000000), wk =   0.0480000
        k(   26) = (   0.0000000  -0.3000000   0.6000000), wk =   0.0480000
        k(   27) = (  -0.1000000  -0.1000000   0.5000000), wk =   0.0480000
        k(   28) = (  -0.1000000  -0.2000000   0.6000000), wk =   0.0960000
        k(   29) = (  -0.1000000   0.7000000  -0.3000000), wk =   0.0480000
        k(   30) = (  -0.2000000   0.8000000  -0.3000000), wk =   0.0480000
        k(   31) = (  -0.3000000   0.3000000   0.3000000), wk =   0.0160000
        k(   32) = (   0.6000000  -0.6000000   0.3000000), wk =   0.0480000
        k(   33) = (   0.5000000  -0.5000000   0.3000000), wk =   0.0240000
        k(   34) = (   0.5000000  -0.6000000   0.4000000), wk =   0.0480000
        k(   35) = (   0.0000000   0.0000000   0.5000000), wk =   0.0120000
        k(   36) = (   0.0000000  -0.1000000   0.6000000), wk =   0.0480000
        k(   37) = (   0.0000000  -0.2000000   0.7000000), wk =   0.0480000
        k(   38) = (  -0.1000000  -0.1000000   0.7000000), wk =   0.0480000
        k(   39) = (  -0.1000000   0.8000000  -0.2000000), wk =   0.0480000
        k(   40) = (   0.5000000  -0.5000000   0.5000000), wk =   0.0040000
        k(   41) = (   0.0000000   0.0000000   0.7000000), wk =   0.0120000
        k(   42) = (   0.0000000  -0.1000000   0.8000000), wk =   0.0480000
        k(   43) = (  -0.1000000   0.9000000  -0.1000000), wk =   0.0160000
        k(   44) = (   0.0000000   0.0000000   0.9000000), wk =   0.0120000

     Dense  grid:     1721 G-vectors     FFT dimensions: (  18,  18,  18)

     Estimated max dynamical RAM per process >       2.24 MB

     Initial potential from superposition of free atoms

     starting charge       0.9960, renormalised to       1.0000
     Starting wfcs are   16 randomized atomic wfcs

     total cpu time spent up to now is        0.1 secs

     Self-consistent Calculation

     iteration #  1     ecut=    20.00 Ry     beta= 0.70
     Davidson diagonalization with overlap
     ethr =  1.00E-02,  avg # of iterations =  4.5

     Threshold (ethr) on eigenvalues was too large:
     Diagonalizing with lowered threshold

     Davidson diagonalization with overlap
     ethr =  1.93E-05,  avg # of iterations =  4.0

     total cpu time spent up to now is        0.3 secs

     total energy              =      -0.69480287 Ry
     estimated scf accuracy    <       0.00019193 Ry

     iteration #  2     ecut=    20.00 Ry     beta= 0.70
     Davidson diagonalization with overlap
     ethr =  1.92E-05,  avg # of iterations =  1.0

     total cpu time spent up to now is        0.3 secs

     total energy              =      -0.69480215 Ry
     estimated scf accuracy    <       0.00001723 Ry

     iteration #  3     ecut=    20.00 Ry     beta= 0.70
     Davidson diagonalization with overlap
     ethr =  1.72E-06,  avg # of iterations =  1.2

     total cpu time spent up to now is        0.4 secs

     End of self-consistent calculation

          k = 0.0000 0.0000 0.1000 (   213 PWs)   bands (ev):

    -3.0373  14.1775  14.1776  14.4455  18.2303

          k = 0.0000-0.1000 0.2000 (   210 PWs)   bands (ev):

    -2.6569  12.0224  12.8891  13.9275  16.5686

          k = 0.0000-0.2000 0.3000 (   211 PWs)   bands (ev):

    -1.8988   8.9511  11.6201  13.1350  15.8560

          k = 0.0000-0.3000 0.4000 (   210 PWs)   bands (ev):

    -0.7904   6.1242  10.7176  12.4380  14.8777

          k = 0.0000-0.4000 0.5000 (   209 PWs)   bands (ev):

     0.4520   3.9964  10.2566  12.0553  14.3858

          k =-0.1000 0.1000 0.1000 (   213 PWs)   bands (ev):

    -2.8474  13.2071  13.5681  13.5681  17.5337

          k =-0.1000-0.1000 0.3000 (   211 PWs)   bands (ev):

    -2.0852  10.3263  10.8688  13.2629  15.7110

          k =-0.1000-0.2000 0.4000 (   209 PWs)   bands (ev):

    -1.1397   7.5475   9.6755  12.5110  15.7110

          k =-0.1000-0.3000 0.5000 (   211 PWs)   bands (ev):

     0.1146   5.0228   9.0111  11.9452  15.7618

          k =-0.1000 0.6000-0.4000 (   214 PWs)   bands (ev):

     1.0471   3.6555   8.7891  11.7432  15.7022

          k =-0.2000 0.2000 0.1000 (   210 PWs)   bands (ev):

    -2.2781  10.5345  12.0649  12.3952  17.0324

          k =-0.2000-0.2000 0.5000 (   216 PWs)   bands (ev):

    -0.0133   5.9160   7.8415  12.0471  15.9573

          k =-0.2000 0.7000-0.4000 (   215 PWs)   bands (ev):

     1.3436   4.0217   7.1364  11.7603  16.4562

          k =-0.3000 0.3000 0.1000 (   205 PWs)   bands (ev):

    -1.3377   7.4972  11.0914  11.3649  16.3351

          k =-0.3000 0.2000 0.2000 (   206 PWs)   bands (ev):

    -1.5203   8.8026   9.7646  11.2009  17.8438

          k =-0.3000 0.7000-0.3000 (   212 PWs)   bands (ev):

     2.7623   2.7623   6.3905  11.6990  17.7261

          k =-0.4000 0.4000 0.1000 (   207 PWs)   bands (ev):

    -0.0976   4.9369  10.4798  10.7056  15.7710

          k =-0.4000 0.3000 0.2000 (   210 PWs)   bands (ev):

    -0.4006   6.2152   8.6672  10.5043  17.9420

          k = 0.5000-0.5000 0.1000 (   212 PWs)   bands (ev):

     0.8027   3.5902  10.2718  10.4808  15.5670

          k = 0.5000-0.6000 0.2000 (   210 PWs)   bands (ev):

     0.9048   4.0621   8.1961  10.1463  17.8008

          k = 0.5000-0.7000 0.3000 (   214 PWs)   bands (ev):

     0.8865   4.7241   6.9629  10.0812  19.3076

          k = 0.4000-0.6000 0.3000 (   214 PWs)   bands (ev):

     2.0332   3.3940   6.4983   9.9375  19.3856

          k = 0.0000 0.0000 0.3000 (   213 PWs)   bands (ev):

    -2.2728  11.4658  11.4658  13.4137  14.2321

          k = 0.0000-0.1000 0.4000 (   210 PWs)   bands (ev):

    -1.5066   9.0788  10.1393  12.8426  13.7493

          k = 0.0000-0.2000 0.5000 (   215 PWs)   bands (ev):

    -0.3805   6.3518   9.2111  12.2210  14.5398

          k = 0.0000-0.3000 0.6000 (   211 PWs)   bands (ev):

     0.9124   4.2050   8.7398  11.8887  15.5520

          k =-0.1000-0.1000 0.5000 (   213 PWs)   bands (ev):

    -0.5470   7.5090   8.4863  12.8886  12.9804

          k =-0.1000-0.2000 0.6000 (   215 PWs)   bands (ev):

     0.7448   5.2803   7.6515  12.4251  13.9329

          k =-0.1000 0.7000-0.3000 (   212 PWs)   bands (ev):

     1.7779   3.8677   7.4095  12.2511  14.8297

          k =-0.2000 0.8000-0.3000 (   213 PWs)   bands (ev):

     2.1635   3.9638   6.5157  13.0389  14.1187

          k =-0.3000 0.3000 0.3000 (   210 PWs)   bands (ev):

    -0.5764   7.6393   7.6393   9.7430  19.4313

          k = 0.6000-0.6000 0.3000 (   212 PWs)   bands (ev):

     0.7133   5.1812   6.9275   9.2230  20.2182

          k = 0.5000-0.5000 0.3000 (   210 PWs)   bands (ev):

     1.7893   3.6888   6.6888   9.0667  20.4066

          k = 0.5000-0.6000 0.4000 (   212 PWs)   bands (ev):

     2.1545   3.9998   5.5266   8.8326  21.5391

          k = 0.0000 0.0000 0.5000 (   209 PWs)   bands (ev):

    -0.7236   8.7892   8.7892  11.2306  12.7028

          k = 0.0000-0.1000 0.6000 (   214 PWs)   bands (ev):

     0.4338   6.7874   7.8508  10.9995  12.7527

          k = 0.0000-0.2000 0.7000 (   216 PWs)   bands (ev):

     1.8195   4.6676   7.3752  11.1668  13.6932

          k =-0.1000-0.1000 0.7000 (   220 PWs)   bands (ev):

     1.7705   5.5788   6.7654  11.0459  12.6700

          k =-0.1000 0.8000-0.2000 (   218 PWs)   bands (ev):

     2.9829   4.2327   6.4160  11.4915  13.1630

          k = 0.5000-0.5000 0.5000 (   216 PWs)   bands (ev):

     3.7572   3.7572   3.7572   8.5061  23.5439

          k = 0.0000 0.0000 0.7000 (   220 PWs)   bands (ev):

     1.6360   6.9079   6.9079   9.2291  12.2271

          k = 0.0000-0.1000 0.8000 (   220 PWs)   bands (ev):

     3.1325   5.4074   6.4307   9.5410  11.6263

          k =-0.1000 0.9000-0.1000 (   224 PWs)   bands (ev):

     4.6055   4.6055   5.9562  10.0670  10.0670

          k = 0.0000 0.0000 0.9000 (   228 PWs)   bands (ev):

     4.7192   5.9522   5.9522   8.2283   9.3761

     the Fermi energy is     0.4814 ev

!    total energy              =      -0.69480224 Ry
     estimated scf accuracy    <          1.1E-09 Ry
     smearing contrib. (-TS)   =      -0.00006238 Ry
     internal energy E=F+TS    =      -0.69473986 Ry

     The total energy is F=E-TS. E is the sum of the following terms:
     one-electron contribution =       0.40485599 Ry
     hartree contribution      =       0.00100049 Ry
     xc contribution           =      -0.54498815 Ry
     ewald contribution        =      -0.55560819 Ry

     convergence has been achieved in   3 iterations

     Forces acting on atoms (cartesian axes, Ry/au):

     atom    1 type  1   force =     0.00000000    0.00000000    0.00000000

     Total force =     0.000000     Total SCF correction =     0.000000


     Computing stress (Cartesian axis) and pressure

          total   stress  (Ry/bohr**3)                   (kbar)     P=       -6.97
  -0.00004739   0.00000000  -0.00000000           -6.97        0.00       -0.00
   0.00000000  -0.00004739   0.00000000            0.00       -6.97        0.00
  -0.00000000   0.00000000  -0.00004739           -0.00        0.00       -6.97


     Writing all to output data dir ./QE-outdir/li.save/ :
     XML data file, charge density, pseudopotentials, collected wavefunctions

     init_run     :      0.06s CPU      0.08s WALL (       1 calls)
     electrons    :      0.22s CPU      0.31s WALL (       1 calls)
     forces       :      0.00s CPU      0.00s WALL (       1 calls)
     stress       :      0.03s CPU      0.03s WALL (       1 calls)

     Called by init_run:
     wfcinit      :      0.05s CPU      0.06s WALL (       1 calls)
     potinit      :      0.00s CPU      0.00s WALL (       1 calls)
     hinit0       :      0.01s CPU      0.01s WALL (       1 calls)

     Called by electrons:
     c_bands      :      0.19s CPU      0.28s WALL (       4 calls)
     sum_band     :      0.03s CPU      0.03s WALL (       4 calls)
     v_of_rho     :      0.00s CPU      0.00s WALL (       4 calls)
     mix_rho      :      0.00s CPU      0.00s WALL (       4 calls)

     Called by c_bands:
     init_us_2    :      0.01s CPU      0.01s WALL (     484 calls)
     cegterg      :      0.18s CPU      0.27s WALL (     176 calls)

     Called by *egterg:
     cdiaghg      :      0.07s CPU      0.17s WALL (     607 calls)
     h_psi        :      0.14s CPU      0.15s WALL (     695 calls)
     g_psi        :      0.00s CPU      0.00s WALL (     475 calls)

     Called by h_psi:
     h_psi:calbec :      0.00s CPU      0.00s WALL (     695 calls)
     vloc_psi     :      0.14s CPU      0.14s WALL (     695 calls)
                                        0.00s GPU  (     695 calls)
     add_vuspsi   :      0.00s CPU      0.00s WALL (     695 calls)

     General routines
     calbec       :      0.01s CPU      0.01s WALL (    1443 calls)
     fft          :      0.00s CPU      0.00s WALL (      65 calls)
     ffts         :      0.00s CPU      0.00s WALL (       4 calls)
     fftw         :      0.14s CPU      0.14s WALL (    7302 calls)

     Parallel routines

     PWSCF        :      0.32s CPU      0.43s WALL


   This run was terminated on:  14: 5: 4  26Jan2026            

=------------------------------------------------------------------------------=
   JOB DONE.
=------------------------------------------------------------------------------=
