
     Program PWSCF v.7.5 starts on 31Jan2026 at 23:33:21 

     This program is part of the open-source Quantum ESPRESSO suite
     for quantum simulation of materials; please cite
         "P. Giannozzi et al., J. Phys.:Condens. Matter 21 395502 (2009);
         "P. Giannozzi et al., J. Phys.:Condens. Matter 29 465901 (2017);
         "P. Giannozzi et al., J. Chem. Phys. 152 154105 (2020);
          URL http://www.quantum-espresso.org", 
     in publications or presentations arising from this work. More details at
     http://www.quantum-espresso.org/quote

     Parallel version (MPI), running on     1 processors

     MPI processes distributed on     1 nodes
     0 MiB available memory on the printing compute node when the environment starts

     Waiting for input...
     Reading input from standard input
     Message from routine read_cards :
     DEPRECATED: no units specified in ATOMIC_POSITIONS card
     Message from routine read_cards :
     ATOMIC_POSITIONS: units set to alat

     Current dimensions of program PWSCF are:
     Max number of different atomic species (ntypx) = 10
     Max number of k-points (npk) =  40000
     Max angular momentum in pseudopotentials (lmaxx) =  4
     file Li.pbe-mt_fhi.UPF: wavefunction(s)  2p 4f renormalized

     Subspace diagonalization in iterative solution of the eigenvalue problem:
     a serial algorithm will be used


     G-vector sticks info
     --------------------
     sticks:   dense  smooth     PW     G-vecs:    dense   smooth      PW
     Sum         197     197     67                 1721     1721     369

     Using Slab Decomposition



     bravais-lattice index     =            3
     lattice parameter (alat)  =       6.5200  a.u.
     unit-cell volume          =     138.5839 (a.u.)^3
     number of atoms/cell      =            1
     number of atomic types    =            1
     number of electrons       =         1.00
     number of Kohn-Sham states=            5
     kinetic-energy cutoff     =      20.0000  Ry
     charge density cutoff     =      80.0000  Ry
     scf convergence threshold =      1.0E-08
     mixing beta               =       0.7000
     number of iterations used =            8  plain     mixing
     Exchange-correlation= PBE
                           (   1   4   3   4   0   0   0)

     celldm(1)=   6.520000  celldm(2)=   0.000000  celldm(3)=   0.000000
     celldm(4)=   0.000000  celldm(5)=   0.000000  celldm(6)=   0.000000

     crystal axes: (cart. coord. in units of alat)
               a(1) = (   0.500000   0.500000   0.500000 )  
               a(2) = (  -0.500000   0.500000   0.500000 )  
               a(3) = (  -0.500000  -0.500000   0.500000 )  

     reciprocal axes: (cart. coord. in units 2 pi/alat)
               b(1) = (  1.000000  0.000000  1.000000 )  
               b(2) = ( -1.000000  1.000000  0.000000 )  
               b(3) = (  0.000000 -1.000000  1.000000 )  


     PseudoPot. # 1 for Li read from file:
     ./pseudopot/Li.pbe-mt_fhi.UPF
     MD5 check sum: 3419f5616d131090147e867976aae79b
     Pseudo is Norm-conserving + core correction, Zval =  1.0
     Generated using FHI98PP, converted with fhi2upf.x v.5.0.2
     Using radial grid of  433 points,  3 beta functions with: 
                l(1) =   0
                l(2) =   1
                l(3) =   3

     atomic species   valence    mass     pseudopotential
     Li                1.00     6.94000     Li( 1.00)

     48 Sym. Ops., with inversion, found



   Cartesian axes

     site n.     atom                  positions (alat units)
         1        Li     tau(   1) = (   0.0000000   0.0000000   0.0000000  )

     number of k points=    44  Methfessel-Paxton smearing, width (Ry)=  0.0100
                       cart. coord. in units 2pi/alat
        k(    1) = (   0.0000000   0.0000000   0.1000000), wk =   0.0120000
        k(    2) = (   0.0000000  -0.1000000   0.2000000), wk =   0.0480000
        k(    3) = (   0.0000000  -0.2000000   0.3000000), wk =   0.0480000
        k(    4) = (   0.0000000  -0.3000000   0.4000000), wk =   0.0480000
        k(    5) = (   0.0000000  -0.4000000   0.5000000), wk =   0.0480000
        k(    6) = (  -0.1000000   0.1000000   0.1000000), wk =   0.0160000
        k(    7) = (  -0.1000000  -0.1000000   0.3000000), wk =   0.0480000
        k(    8) = (  -0.1000000  -0.2000000   0.4000000), wk =   0.0960000
        k(    9) = (  -0.1000000  -0.3000000   0.5000000), wk =   0.0960000
        k(   10) = (  -0.1000000   0.6000000  -0.4000000), wk =   0.0480000
        k(   11) = (  -0.2000000   0.2000000   0.1000000), wk =   0.0480000
        k(   12) = (  -0.2000000  -0.2000000   0.5000000), wk =   0.0480000
        k(   13) = (  -0.2000000   0.7000000  -0.4000000), wk =   0.0960000
        k(   14) = (  -0.3000000   0.3000000   0.1000000), wk =   0.0480000
        k(   15) = (  -0.3000000   0.2000000   0.2000000), wk =   0.0480000
        k(   16) = (  -0.3000000   0.7000000  -0.3000000), wk =   0.0160000
        k(   17) = (  -0.4000000   0.4000000   0.1000000), wk =   0.0480000
        k(   18) = (  -0.4000000   0.3000000   0.2000000), wk =   0.0960000
        k(   19) = (   0.5000000  -0.5000000   0.1000000), wk =   0.0240000
        k(   20) = (   0.5000000  -0.6000000   0.2000000), wk =   0.0960000
        k(   21) = (   0.5000000  -0.7000000   0.3000000), wk =   0.0480000
        k(   22) = (   0.4000000  -0.6000000   0.3000000), wk =   0.0480000
        k(   23) = (   0.0000000   0.0000000   0.3000000), wk =   0.0120000
        k(   24) = (   0.0000000  -0.1000000   0.4000000), wk =   0.0480000
        k(   25) = (   0.0000000  -0.2000000   0.5000000), wk =   0.0480000
        k(   26) = (   0.0000000  -0.3000000   0.6000000), wk =   0.0480000
        k(   27) = (  -0.1000000  -0.1000000   0.5000000), wk =   0.0480000
        k(   28) = (  -0.1000000  -0.2000000   0.6000000), wk =   0.0960000
        k(   29) = (  -0.1000000   0.7000000  -0.3000000), wk =   0.0480000
        k(   30) = (  -0.2000000   0.8000000  -0.3000000), wk =   0.0480000
        k(   31) = (  -0.3000000   0.3000000   0.3000000), wk =   0.0160000
        k(   32) = (   0.6000000  -0.6000000   0.3000000), wk =   0.0480000
        k(   33) = (   0.5000000  -0.5000000   0.3000000), wk =   0.0240000
        k(   34) = (   0.5000000  -0.6000000   0.4000000), wk =   0.0480000
        k(   35) = (   0.0000000   0.0000000   0.5000000), wk =   0.0120000
        k(   36) = (   0.0000000  -0.1000000   0.6000000), wk =   0.0480000
        k(   37) = (   0.0000000  -0.2000000   0.7000000), wk =   0.0480000
        k(   38) = (  -0.1000000  -0.1000000   0.7000000), wk =   0.0480000
        k(   39) = (  -0.1000000   0.8000000  -0.2000000), wk =   0.0480000
        k(   40) = (   0.5000000  -0.5000000   0.5000000), wk =   0.0040000
        k(   41) = (   0.0000000   0.0000000   0.7000000), wk =   0.0120000
        k(   42) = (   0.0000000  -0.1000000   0.8000000), wk =   0.0480000
        k(   43) = (  -0.1000000   0.9000000  -0.1000000), wk =   0.0160000
        k(   44) = (   0.0000000   0.0000000   0.9000000), wk =   0.0120000

     Dense  grid:     1721 G-vectors     FFT dimensions: (  18,  18,  18)

     Estimated max dynamical RAM per process >       2.23 MB

     Initial potential from superposition of free atoms

     starting charge       0.9960, renormalised to       1.0000
     Starting wfcs are   16 randomized atomic wfcs

     total cpu time spent up to now is        0.1 secs

     Self-consistent Calculation

     iteration #  1     ecut=    20.00 Ry     beta= 0.70
     Davidson diagonalization with overlap
     ethr =  1.00E-02,  avg # of iterations =  4.6

     Threshold (ethr) on eigenvalues was too large:
     Diagonalizing with lowered threshold

     Davidson diagonalization with overlap
     ethr =  1.97E-05,  avg # of iterations =  3.6

     total cpu time spent up to now is        0.3 secs

     total energy              =      -0.69488105 Ry
     estimated scf accuracy    <       0.00019598 Ry

     iteration #  2     ecut=    20.00 Ry     beta= 0.70
     Davidson diagonalization with overlap
     ethr =  1.96E-05,  avg # of iterations =  1.0

     total cpu time spent up to now is        0.3 secs

     total energy              =      -0.69488025 Ry
     estimated scf accuracy    <       0.00001754 Ry

     iteration #  3     ecut=    20.00 Ry     beta= 0.70
     Davidson diagonalization with overlap
     ethr =  1.75E-06,  avg # of iterations =  1.5

     total cpu time spent up to now is        0.4 secs

     End of self-consistent calculation

          k = 0.0000 0.0000 0.1000 (   209 PWs)   bands (ev):

    -3.0205  14.3462  14.3462  14.6182  18.4200

          k = 0.0000-0.1000 0.2000 (   207 PWs)   bands (ev):

    -2.6380  12.1677  13.0427  14.0935  16.7474

          k = 0.0000-0.2000 0.3000 (   208 PWs)   bands (ev):

    -1.8759   9.0676  11.7607  13.2912  16.0270

          k = 0.0000-0.3000 0.4000 (   207 PWs)   bands (ev):

    -0.7618   6.2176  10.8493  12.5865  15.0396

          k = 0.0000-0.4000 0.5000 (   204 PWs)   bands (ev):

     0.4848   4.0767  10.3840  12.1996  14.5432

          k =-0.1000 0.1000 0.1000 (   207 PWs)   bands (ev):

    -2.8297  13.3677  13.7282  13.7282  17.7231

          k =-0.1000-0.1000 0.3000 (   207 PWs)   bands (ev):

    -2.0633  10.4508  11.0072  13.4213  15.8820

          k =-0.1000-0.2000 0.4000 (   207 PWs)   bands (ev):

    -1.1125   7.6488   9.8015  12.6598  15.8840

          k =-0.1000-0.3000 0.5000 (   205 PWs)   bands (ev):

     0.1482   5.1055   9.1309  12.0884  15.9397

          k =-0.1000 0.6000-0.4000 (   212 PWs)   bands (ev):

     1.0825   3.7319   8.9065  11.8840  15.8806

          k =-0.2000 0.2000 0.1000 (   205 PWs)   bands (ev):

    -2.2572  10.6644  12.2146  12.5405  17.2192

          k =-0.2000-0.2000 0.5000 (   214 PWs)   bands (ev):

     0.0205   5.9972   7.9594  12.1912  16.1308

          k =-0.2000 0.7000-0.4000 (   211 PWs)   bands (ev):

     1.3845   4.0894   7.2494  11.9018  16.6376

          k =-0.3000 0.3000 0.1000 (   205 PWs)   bands (ev):

    -1.3118   7.6003  11.2317  11.4985  16.5139

          k =-0.3000 0.2000 0.2000 (   206 PWs)   bands (ev):

    -1.4953   8.9113   9.8920  11.3413  18.0423

          k =-0.3000 0.7000-0.3000 (   212 PWs)   bands (ev):

     2.8138   2.8138   6.5038  11.8400  17.9159

          k =-0.4000 0.4000 0.1000 (   205 PWs)   bands (ev):

    -0.0659   5.0210  10.6150  10.8326  15.9437

          k =-0.4000 0.3000 0.2000 (   206 PWs)   bands (ev):

    -0.3694   6.3034   8.7832  10.6407  18.1415

          k = 0.5000-0.5000 0.1000 (   204 PWs)   bands (ev):

     0.8359   3.6684  10.4056  10.6059  15.7379

          k = 0.5000-0.6000 0.2000 (   208 PWs)   bands (ev):

     0.9416   4.1363   8.3069  10.2805  17.9984

          k = 0.5000-0.7000 0.3000 (   210 PWs)   bands (ev):

     0.9253   4.7942   7.0704  10.2169  19.5155

          k = 0.4000-0.6000 0.3000 (   214 PWs)   bands (ev):

     2.0778   3.4546   6.6028  10.0729  19.6002

          k = 0.0000 0.0000 0.3000 (   209 PWs)   bands (ev):

    -2.2518  11.6039  11.6040  13.5822  14.3849

          k = 0.0000-0.1000 0.4000 (   208 PWs)   bands (ev):

    -1.4811   9.1942  10.2640  13.0011  13.9046

          k = 0.0000-0.2000 0.5000 (   212 PWs)   bands (ev):

    -0.3488   6.4447   9.3268  12.3743  14.7035

          k = 0.0000-0.3000 0.6000 (   209 PWs)   bands (ev):

     0.9495   4.2837   8.8513  12.0394  15.7265

          k =-0.1000-0.1000 0.5000 (   213 PWs)   bands (ev):

    -0.5158   7.6060   8.6015  13.0522  13.1246

          k =-0.1000-0.2000 0.6000 (   213 PWs)   bands (ev):

     0.7835   5.3601   7.7600  12.5786  14.0909

          k =-0.1000 0.7000-0.3000 (   212 PWs)   bands (ev):

     1.8201   3.9402   7.5155  12.4033  14.9963

          k =-0.2000 0.8000-0.3000 (   211 PWs)   bands (ev):

     2.2113   4.0267   6.6238  13.1997  14.2742

          k =-0.3000 0.3000 0.3000 (   210 PWs)   bands (ev):

    -0.5461   7.7366   7.7366   9.8867  19.6452

          k = 0.6000-0.6000 0.3000 (   208 PWs)   bands (ev):

     0.7512   5.2582   7.0183   9.3662  20.4404

          k = 0.5000-0.5000 0.3000 (   210 PWs)   bands (ev):

     1.8316   3.7570   6.7769   9.2094  20.6289

          k = 0.5000-0.6000 0.4000 (   206 PWs)   bands (ev):

     2.2019   4.0629   5.6079   8.9778  21.7773

          k = 0.0000 0.0000 0.5000 (   209 PWs)   bands (ev):

    -0.6932   8.9005   8.9005  11.3558  12.8736

          k = 0.0000-0.1000 0.6000 (   212 PWs)   bands (ev):

     0.4717   6.8807   7.9534  11.1276  12.9226

          k = 0.0000-0.2000 0.7000 (   215 PWs)   bands (ev):

     1.8649   4.7455   7.4730  11.3078  13.8603

          k =-0.1000-0.1000 0.7000 (   214 PWs)   bands (ev):

     1.8175   5.6576   6.8642  11.1719  12.8397

          k =-0.1000 0.8000-0.2000 (   215 PWs)   bands (ev):

     3.0367   4.3020   6.5129  11.6274  13.3095

          k = 0.5000-0.5000 0.5000 (   216 PWs)   bands (ev):

     3.8179   3.8179   3.8179   8.6553  23.8006

          k = 0.0000 0.0000 0.7000 (   212 PWs)   bands (ev):

     1.6829   7.0018   7.0018   9.3358  12.3967

          k = 0.0000-0.1000 0.8000 (   218 PWs)   bands (ev):

     3.1901   5.4876   6.5197   9.6541  11.7664

          k =-0.1000 0.9000-0.1000 (   218 PWs)   bands (ev):

     4.6752   4.6752   6.0456  10.1840  10.1840

          k = 0.0000 0.0000 0.9000 (   228 PWs)   bands (ev):

     4.7911   6.0365   6.0365   8.3258   9.4870

     the Fermi energy is     0.5164 ev

!    total energy              =      -0.69488034 Ry
     estimated scf accuracy    <          1.0E-09 Ry
     smearing contrib. (-TS)   =      -0.00006571 Ry
     internal energy E=F+TS    =      -0.69481463 Ry

     The total energy is F=E-TS. E is the sum of the following terms:
     one-electron contribution =       0.40900123 Ry
     hartree contribution      =       0.00102339 Ry
     xc contribution           =      -0.54667458 Ry
     ewald contribution        =      -0.55816467 Ry

     convergence has been achieved in   3 iterations

     Forces acting on atoms (cartesian axes, Ry/au):

     atom    1 type  1   force =     0.00000000    0.00000000    0.00000000

     Total force =     0.000000     Total SCF correction =     0.000000


     Computing stress (Cartesian axis) and pressure

          total   stress  (Ry/bohr**3)                   (kbar)     P=       -5.38
  -0.00003660   0.00000000  -0.00000000           -5.38        0.00       -0.00
   0.00000000  -0.00003660   0.00000000            0.00       -5.38        0.00
  -0.00000000   0.00000000  -0.00003660           -0.00        0.00       -5.38


     Writing all to output data dir ./QE-outdir/li.save/ :
     XML data file, charge density, pseudopotentials, collected wavefunctions

     init_run     :      0.06s CPU      0.08s WALL (       1 calls)
     electrons    :      0.22s CPU      0.31s WALL (       1 calls)
     forces       :      0.00s CPU      0.00s WALL (       1 calls)
     stress       :      0.03s CPU      0.03s WALL (       1 calls)

     Called by init_run:
     wfcinit      :      0.05s CPU      0.06s WALL (       1 calls)
     potinit      :      0.00s CPU      0.00s WALL (       1 calls)
     hinit0       :      0.01s CPU      0.01s WALL (       1 calls)

     Called by electrons:
     c_bands      :      0.19s CPU      0.28s WALL (       4 calls)
     sum_band     :      0.03s CPU      0.03s WALL (       4 calls)
     v_of_rho     :      0.00s CPU      0.00s WALL (       4 calls)
     mix_rho      :      0.00s CPU      0.00s WALL (       4 calls)

     Called by c_bands:
     init_us_2    :      0.01s CPU      0.01s WALL (     484 calls)
     cegterg      :      0.18s CPU      0.27s WALL (     176 calls)

     Called by *egterg:
     cdiaghg      :      0.07s CPU      0.17s WALL (     601 calls)
     h_psi        :      0.14s CPU      0.15s WALL (     689 calls)
     g_psi        :      0.00s CPU      0.00s WALL (     469 calls)

     Called by h_psi:
     h_psi:calbec :      0.00s CPU      0.00s WALL (     689 calls)
     vloc_psi     :      0.14s CPU      0.14s WALL (     689 calls)
                                        0.00s GPU  (     689 calls)
     add_vuspsi   :      0.00s CPU      0.00s WALL (     689 calls)

     General routines
     calbec       :      0.01s CPU      0.01s WALL (    1437 calls)
     fft          :      0.00s CPU      0.00s WALL (      65 calls)
     ffts         :      0.00s CPU      0.00s WALL (       4 calls)
     fftw         :      0.14s CPU      0.14s WALL (    7272 calls)

     Parallel routines

     PWSCF        :      0.32s CPU      0.43s WALL


   This run was terminated on:  23:33:21  31Jan2026            

=------------------------------------------------------------------------------=
   JOB DONE.
=------------------------------------------------------------------------------=
