
     Program PWSCF v.7.5 starts on 31Jan2026 at 23:33:19 

     This program is part of the open-source Quantum ESPRESSO suite
     for quantum simulation of materials; please cite
         "P. Giannozzi et al., J. Phys.:Condens. Matter 21 395502 (2009);
         "P. Giannozzi et al., J. Phys.:Condens. Matter 29 465901 (2017);
         "P. Giannozzi et al., J. Chem. Phys. 152 154105 (2020);
          URL http://www.quantum-espresso.org", 
     in publications or presentations arising from this work. More details at
     http://www.quantum-espresso.org/quote

     Parallel version (MPI), running on     1 processors

     MPI processes distributed on     1 nodes
     0 MiB available memory on the printing compute node when the environment starts

     Waiting for input...
     Reading input from standard input
     Message from routine read_cards :
     DEPRECATED: no units specified in ATOMIC_POSITIONS card
     Message from routine read_cards :
     ATOMIC_POSITIONS: units set to alat

     Current dimensions of program PWSCF are:
     Max number of different atomic species (ntypx) = 10
     Max number of k-points (npk) =  40000
     Max angular momentum in pseudopotentials (lmaxx) =  4
     file Li.pbe-mt_fhi.UPF: wavefunction(s)  2p 4f renormalized

     Subspace diagonalization in iterative solution of the eigenvalue problem:
     a serial algorithm will be used


     G-vector sticks info
     --------------------
     sticks:   dense  smooth     PW     G-vecs:    dense   smooth      PW
     Sum         173     173     63                 1505     1505     321

     Using Slab Decomposition



     bravais-lattice index     =            3
     lattice parameter (alat)  =       6.3600  a.u.
     unit-cell volume          =     128.6297 (a.u.)^3
     number of atoms/cell      =            1
     number of atomic types    =            1
     number of electrons       =         1.00
     number of Kohn-Sham states=            5
     kinetic-energy cutoff     =      20.0000  Ry
     charge density cutoff     =      80.0000  Ry
     scf convergence threshold =      1.0E-08
     mixing beta               =       0.7000
     number of iterations used =            8  plain     mixing
     Exchange-correlation= PBE
                           (   1   4   3   4   0   0   0)

     celldm(1)=   6.360000  celldm(2)=   0.000000  celldm(3)=   0.000000
     celldm(4)=   0.000000  celldm(5)=   0.000000  celldm(6)=   0.000000

     crystal axes: (cart. coord. in units of alat)
               a(1) = (   0.500000   0.500000   0.500000 )  
               a(2) = (  -0.500000   0.500000   0.500000 )  
               a(3) = (  -0.500000  -0.500000   0.500000 )  

     reciprocal axes: (cart. coord. in units 2 pi/alat)
               b(1) = (  1.000000  0.000000  1.000000 )  
               b(2) = ( -1.000000  1.000000  0.000000 )  
               b(3) = (  0.000000 -1.000000  1.000000 )  


     PseudoPot. # 1 for Li read from file:
     ./pseudopot/Li.pbe-mt_fhi.UPF
     MD5 check sum: 3419f5616d131090147e867976aae79b
     Pseudo is Norm-conserving + core correction, Zval =  1.0
     Generated using FHI98PP, converted with fhi2upf.x v.5.0.2
     Using radial grid of  433 points,  3 beta functions with: 
                l(1) =   0
                l(2) =   1
                l(3) =   3

     atomic species   valence    mass     pseudopotential
     Li                1.00     6.94000     Li( 1.00)

     48 Sym. Ops., with inversion, found



   Cartesian axes

     site n.     atom                  positions (alat units)
         1        Li     tau(   1) = (   0.0000000   0.0000000   0.0000000  )

     number of k points=    44  Methfessel-Paxton smearing, width (Ry)=  0.0100
                       cart. coord. in units 2pi/alat
        k(    1) = (   0.0000000   0.0000000   0.1000000), wk =   0.0120000
        k(    2) = (   0.0000000  -0.1000000   0.2000000), wk =   0.0480000
        k(    3) = (   0.0000000  -0.2000000   0.3000000), wk =   0.0480000
        k(    4) = (   0.0000000  -0.3000000   0.4000000), wk =   0.0480000
        k(    5) = (   0.0000000  -0.4000000   0.5000000), wk =   0.0480000
        k(    6) = (  -0.1000000   0.1000000   0.1000000), wk =   0.0160000
        k(    7) = (  -0.1000000  -0.1000000   0.3000000), wk =   0.0480000
        k(    8) = (  -0.1000000  -0.2000000   0.4000000), wk =   0.0960000
        k(    9) = (  -0.1000000  -0.3000000   0.5000000), wk =   0.0960000
        k(   10) = (  -0.1000000   0.6000000  -0.4000000), wk =   0.0480000
        k(   11) = (  -0.2000000   0.2000000   0.1000000), wk =   0.0480000
        k(   12) = (  -0.2000000  -0.2000000   0.5000000), wk =   0.0480000
        k(   13) = (  -0.2000000   0.7000000  -0.4000000), wk =   0.0960000
        k(   14) = (  -0.3000000   0.3000000   0.1000000), wk =   0.0480000
        k(   15) = (  -0.3000000   0.2000000   0.2000000), wk =   0.0480000
        k(   16) = (  -0.3000000   0.7000000  -0.3000000), wk =   0.0160000
        k(   17) = (  -0.4000000   0.4000000   0.1000000), wk =   0.0480000
        k(   18) = (  -0.4000000   0.3000000   0.2000000), wk =   0.0960000
        k(   19) = (   0.5000000  -0.5000000   0.1000000), wk =   0.0240000
        k(   20) = (   0.5000000  -0.6000000   0.2000000), wk =   0.0960000
        k(   21) = (   0.5000000  -0.7000000   0.3000000), wk =   0.0480000
        k(   22) = (   0.4000000  -0.6000000   0.3000000), wk =   0.0480000
        k(   23) = (   0.0000000   0.0000000   0.3000000), wk =   0.0120000
        k(   24) = (   0.0000000  -0.1000000   0.4000000), wk =   0.0480000
        k(   25) = (   0.0000000  -0.2000000   0.5000000), wk =   0.0480000
        k(   26) = (   0.0000000  -0.3000000   0.6000000), wk =   0.0480000
        k(   27) = (  -0.1000000  -0.1000000   0.5000000), wk =   0.0480000
        k(   28) = (  -0.1000000  -0.2000000   0.6000000), wk =   0.0960000
        k(   29) = (  -0.1000000   0.7000000  -0.3000000), wk =   0.0480000
        k(   30) = (  -0.2000000   0.8000000  -0.3000000), wk =   0.0480000
        k(   31) = (  -0.3000000   0.3000000   0.3000000), wk =   0.0160000
        k(   32) = (   0.6000000  -0.6000000   0.3000000), wk =   0.0480000
        k(   33) = (   0.5000000  -0.5000000   0.3000000), wk =   0.0240000
        k(   34) = (   0.5000000  -0.6000000   0.4000000), wk =   0.0480000
        k(   35) = (   0.0000000   0.0000000   0.5000000), wk =   0.0120000
        k(   36) = (   0.0000000  -0.1000000   0.6000000), wk =   0.0480000
        k(   37) = (   0.0000000  -0.2000000   0.7000000), wk =   0.0480000
        k(   38) = (  -0.1000000  -0.1000000   0.7000000), wk =   0.0480000
        k(   39) = (  -0.1000000   0.8000000  -0.2000000), wk =   0.0480000
        k(   40) = (   0.5000000  -0.5000000   0.5000000), wk =   0.0040000
        k(   41) = (   0.0000000   0.0000000   0.7000000), wk =   0.0120000
        k(   42) = (   0.0000000  -0.1000000   0.8000000), wk =   0.0480000
        k(   43) = (  -0.1000000   0.9000000  -0.1000000), wk =   0.0160000
        k(   44) = (   0.0000000   0.0000000   0.9000000), wk =   0.0120000

     Dense  grid:     1505 G-vectors     FFT dimensions: (  15,  15,  15)

     Estimated max dynamical RAM per process >       1.91 MB

     Initial potential from superposition of free atoms

     starting charge       0.9960, renormalised to       1.0000
     Starting wfcs are   16 randomized atomic wfcs

     total cpu time spent up to now is        0.1 secs

     Self-consistent Calculation

     iteration #  1     ecut=    20.00 Ry     beta= 0.70
     Davidson diagonalization with overlap
     ethr =  1.00E-02,  avg # of iterations =  4.4

     Threshold (ethr) on eigenvalues was too large:
     Diagonalizing with lowered threshold

     Davidson diagonalization with overlap
     ethr =  2.23E-05,  avg # of iterations =  3.5

     total cpu time spent up to now is        0.2 secs

     total energy              =      -0.69490359 Ry
     estimated scf accuracy    <       0.00022233 Ry

     iteration #  2     ecut=    20.00 Ry     beta= 0.70
     Davidson diagonalization with overlap
     ethr =  2.22E-05,  avg # of iterations =  1.0

     total cpu time spent up to now is        0.2 secs

     total energy              =      -0.69490203 Ry
     estimated scf accuracy    <       0.00001978 Ry

     iteration #  3     ecut=    20.00 Ry     beta= 0.70
     Davidson diagonalization with overlap
     ethr =  1.98E-06,  avg # of iterations =  1.7

     total cpu time spent up to now is        0.3 secs

     End of self-consistent calculation

          k = 0.0000 0.0000 0.1000 (   197 PWs)   bands (ev):

    -2.9205  15.2837  15.2837  15.5821  19.4789

          k = 0.0000-0.1000 0.2000 (   196 PWs)   bands (ev):

    -2.5273  12.9780  13.9002  15.0192  17.7458

          k = 0.0000-0.2000 0.3000 (   192 PWs)   bands (ev):

    -1.7435   9.7189  12.5463  14.1617  16.9820

          k = 0.0000-0.3000 0.4000 (   190 PWs)   bands (ev):

    -0.5990   6.7408  11.5852  13.4125  15.9440

          k = 0.0000-0.4000 0.5000 (   190 PWs)   bands (ev):

     0.6690   4.5283  11.0947  13.0026  15.4220

          k =-0.1000 0.1000 0.1000 (   198 PWs)   bands (ev):

    -2.7244  14.2646  14.6158  14.6159  18.7785

          k =-0.1000-0.1000 0.3000 (   189 PWs)   bands (ev):

    -1.9357  11.1455  11.7784  14.3048  16.8359

          k =-0.1000-0.2000 0.4000 (   192 PWs)   bands (ev):

    -0.9571   8.2151  10.5064  13.4914  16.8510

          k =-0.1000-0.3000 0.5000 (   191 PWs)   bands (ev):

     0.3371   5.5687   9.8001  12.8844  16.9327

          k =-0.1000 0.6000-0.4000 (   195 PWs)   bands (ev):

     1.2814   4.1611   9.5641  12.6685  16.8754

          k =-0.2000 0.2000 0.1000 (   195 PWs)   bands (ev):

    -2.1359  11.3898  13.0462  13.3490  18.2607

          k =-0.2000-0.2000 0.5000 (   192 PWs)   bands (ev):

     0.2114   6.4517   8.6204  12.9952  17.0999

          k =-0.2000 0.7000-0.4000 (   197 PWs)   bands (ev):

     1.6135   4.4679   7.8831  12.6903  17.6496

          k =-0.3000 0.3000 0.1000 (   190 PWs)   bands (ev):

    -1.1636   8.1775  12.0170  12.2453  17.5123

          k =-0.3000 0.2000 0.2000 (   187 PWs)   bands (ev):

    -1.3517   9.5188  10.6028  12.1287  19.1518

          k =-0.3000 0.7000-0.3000 (   197 PWs)   bands (ev):

     3.1022   3.1022   7.1395  12.6288  18.9756

          k =-0.4000 0.4000 0.1000 (   188 PWs)   bands (ev):

     0.1134   5.4928  11.3695  11.5417  16.9083

          k =-0.4000 0.3000 0.2000 (   191 PWs)   bands (ev):

    -0.1927   6.7960   9.4297  11.4053  19.2536

          k = 0.5000-0.5000 0.1000 (   188 PWs)   bands (ev):

     1.0221   4.1078  11.1497  11.3025  16.6906

          k = 0.5000-0.6000 0.2000 (   195 PWs)   bands (ev):

     1.1486   4.5523   8.9249  11.0339  19.1003

          k = 0.5000-0.7000 0.3000 (   196 PWs)   bands (ev):

     1.1437   5.1848   7.6706  10.9787  20.6732

          k = 0.4000-0.6000 0.3000 (   197 PWs)   bands (ev):

     2.3278   3.7936   7.1872  10.8341  20.7974

          k = 0.0000 0.0000 0.3000 (   201 PWs)   bands (ev):

    -2.1295  12.3744  12.3744  14.5177  15.2384

          k = 0.0000-0.1000 0.4000 (   192 PWs)   bands (ev):

    -1.3352   9.8389  10.9609  13.8841  14.7754

          k = 0.0000-0.2000 0.5000 (   192 PWs)   bands (ev):

    -0.1690   6.9636   9.9736  13.2302  15.6181

          k = 0.0000-0.3000 0.6000 (   199 PWs)   bands (ev):

     1.1575   4.7256   9.4724  12.8817  16.7015

          k =-0.1000-0.1000 0.5000 (   195 PWs)   bands (ev):

    -0.3387   8.1477   9.2457  13.9298  13.9677

          k =-0.1000-0.2000 0.6000 (   196 PWs)   bands (ev):

     1.0014   5.8062   8.3668  13.4352  14.9747

          k =-0.1000 0.7000-0.3000 (   200 PWs)   bands (ev):

     2.0571   4.3467   8.1100  13.2538  15.9277

          k =-0.2000 0.8000-0.3000 (   201 PWs)   bands (ev):

     2.4790   4.3788   7.2297  14.0961  15.1428

          k =-0.3000 0.3000 0.3000 (   186 PWs)   bands (ev):

    -0.3735   8.2808   8.2808  10.6922  20.8425

          k = 0.6000-0.6000 0.3000 (   190 PWs)   bands (ev):

     0.9644   5.6885   7.5240  10.1695  21.9571

          k = 0.5000-0.5000 0.3000 (   194 PWs)   bands (ev):

     2.0690   4.1385   7.2702  10.0112  21.8721

          k = 0.5000-0.6000 0.4000 (   192 PWs)   bands (ev):

     2.4677   4.4156   6.0611   9.7926  23.0996

          k = 0.0000 0.0000 0.5000 (   201 PWs)   bands (ev):

    -0.5201   9.5224   9.5224  12.0549  13.8288

          k = 0.0000-0.1000 0.6000 (   197 PWs)   bands (ev):

     0.6853   7.4022   8.5256  11.8418  13.8736

          k = 0.0000-0.2000 0.7000 (   200 PWs)   bands (ev):

     2.1199   5.1814   8.0203  12.0936  14.7948

          k =-0.1000-0.1000 0.7000 (   197 PWs)   bands (ev):

     2.0810   6.0978   7.4156  11.8760  13.7839

          k =-0.1000 0.8000-0.2000 (   204 PWs)   bands (ev):

     3.3372   4.6894   7.0558  12.3854  14.1270

          k = 0.5000-0.5000 0.5000 (   180 PWs)   bands (ev):

     4.1584   4.1584   4.1584   9.4949  25.2421

          k = 0.0000 0.0000 0.7000 (   204 PWs)   bands (ev):

     1.9462   7.5233   7.5233   9.9320  13.3408

          k = 0.0000-0.1000 0.8000 (   204 PWs)   bands (ev):

     3.5122   5.9368   7.0163  10.2857  12.5457

          k =-0.1000 0.9000-0.1000 (   206 PWs)   bands (ev):

     5.0641   5.0641   6.5444  10.8370  10.8370

          k = 0.0000 0.0000 0.9000 (   196 PWs)   bands (ev):

     5.1936   6.5094   6.5094   8.8705  10.1073

     the Fermi energy is     0.7144 ev

!    total energy              =      -0.69490211 Ry
     estimated scf accuracy    <          7.2E-10 Ry
     smearing contrib. (-TS)   =      -0.00007710 Ry
     internal energy E=F+TS    =      -0.69482501 Ry

     The total energy is F=E-TS. E is the sum of the following terms:
     one-electron contribution =       0.43219720 Ry
     hartree contribution      =       0.00114900 Ry
     xc contribution           =      -0.55596464 Ry
     ewald contribution        =      -0.57220656 Ry

     convergence has been achieved in   3 iterations

     Forces acting on atoms (cartesian axes, Ry/au):

     atom    1 type  1   force =     0.00000000    0.00000000    0.00000000

     Total force =     0.000000     Total SCF correction =     0.000000


     Computing stress (Cartesian axis) and pressure

          total   stress  (Ry/bohr**3)                   (kbar)     P=        4.48
   0.00003044  -0.00000000   0.00000000            4.48       -0.00        0.00
  -0.00000000   0.00003044  -0.00000000           -0.00        4.48       -0.00
   0.00000000  -0.00000000   0.00003044            0.00       -0.00        4.48


     Writing all to output data dir ./QE-outdir/li.save/ :
     XML data file, charge density, pseudopotentials, collected wavefunctions

     init_run     :      0.04s CPU      0.06s WALL (       1 calls)
     electrons    :      0.13s CPU      0.21s WALL (       1 calls)
     forces       :      0.00s CPU      0.00s WALL (       1 calls)
     stress       :      0.02s CPU      0.02s WALL (       1 calls)

     Called by init_run:
     wfcinit      :      0.03s CPU      0.04s WALL (       1 calls)
     potinit      :      0.00s CPU      0.00s WALL (       1 calls)
     hinit0       :      0.01s CPU      0.01s WALL (       1 calls)

     Called by electrons:
     c_bands      :      0.11s CPU      0.20s WALL (       4 calls)
     sum_band     :      0.01s CPU      0.01s WALL (       4 calls)
     v_of_rho     :      0.00s CPU      0.00s WALL (       4 calls)
     mix_rho      :      0.00s CPU      0.00s WALL (       4 calls)

     Called by c_bands:
     init_us_2    :      0.01s CPU      0.01s WALL (     484 calls)
     cegterg      :      0.11s CPU      0.19s WALL (     176 calls)

     Called by *egterg:
     cdiaghg      :      0.07s CPU      0.16s WALL (     596 calls)
     h_psi        :      0.05s CPU      0.06s WALL (     684 calls)
     g_psi        :      0.00s CPU      0.00s WALL (     464 calls)

     Called by h_psi:
     h_psi:calbec :      0.00s CPU      0.00s WALL (     684 calls)
     vloc_psi     :      0.05s CPU      0.05s WALL (     684 calls)
                                        0.00s GPU  (     684 calls)
     add_vuspsi   :      0.00s CPU      0.00s WALL (     684 calls)

     General routines
     calbec       :      0.01s CPU      0.01s WALL (    1432 calls)
     fft          :      0.00s CPU      0.00s WALL (      65 calls)
     ffts         :      0.00s CPU      0.00s WALL (       4 calls)
     fftw         :      0.04s CPU      0.04s WALL (    7242 calls)

     Parallel routines

     PWSCF        :      0.20s CPU      0.31s WALL


   This run was terminated on:  23:33:19  31Jan2026            

=------------------------------------------------------------------------------=
   JOB DONE.
=------------------------------------------------------------------------------=
