
     Program PWSCF v.7.5 starts on 26Jan2026 at 14: 5: 8 

     This program is part of the open-source Quantum ESPRESSO suite
     for quantum simulation of materials; please cite
         "P. Giannozzi et al., J. Phys.:Condens. Matter 21 395502 (2009);
         "P. Giannozzi et al., J. Phys.:Condens. Matter 29 465901 (2017);
         "P. Giannozzi et al., J. Chem. Phys. 152 154105 (2020);
          URL http://www.quantum-espresso.org", 
     in publications or presentations arising from this work. More details at
     http://www.quantum-espresso.org/quote

     Parallel version (MPI), running on     1 processors

     MPI processes distributed on     1 nodes
     0 MiB available memory on the printing compute node when the environment starts

     Waiting for input...
     Reading input from standard input
     Message from routine read_cards :
     DEPRECATED: no units specified in ATOMIC_POSITIONS card
     Message from routine read_cards :
     ATOMIC_POSITIONS: units set to alat

     Current dimensions of program PWSCF are:
     Max number of different atomic species (ntypx) = 10
     Max number of k-points (npk) =  40000
     Max angular momentum in pseudopotentials (lmaxx) =  4
     file Li.pbe-mt_fhi.UPF: wavefunction(s)  2p 4f renormalized

     Subspace diagonalization in iterative solution of the eigenvalue problem:
     a serial algorithm will be used


     G-vector sticks info
     --------------------
     sticks:   dense  smooth     PW     G-vecs:    dense   smooth      PW
     Sum         217     217     77                 1985     1985     429

     Using Slab Decomposition



     bravais-lattice index     =            3
     lattice parameter (alat)  =       6.9500  a.u.
     unit-cell volume          =     167.8512 (a.u.)^3
     number of atoms/cell      =            1
     number of atomic types    =            1
     number of electrons       =         1.00
     number of Kohn-Sham states=            5
     kinetic-energy cutoff     =      20.0000  Ry
     charge density cutoff     =      80.0000  Ry
     scf convergence threshold =      1.0E-08
     mixing beta               =       0.7000
     number of iterations used =            8  plain     mixing
     Exchange-correlation= PBE
                           (   1   4   3   4   0   0   0)

     celldm(1)=   6.950000  celldm(2)=   0.000000  celldm(3)=   0.000000
     celldm(4)=   0.000000  celldm(5)=   0.000000  celldm(6)=   0.000000

     crystal axes: (cart. coord. in units of alat)
               a(1) = (   0.500000   0.500000   0.500000 )  
               a(2) = (  -0.500000   0.500000   0.500000 )  
               a(3) = (  -0.500000  -0.500000   0.500000 )  

     reciprocal axes: (cart. coord. in units 2 pi/alat)
               b(1) = (  1.000000  0.000000  1.000000 )  
               b(2) = ( -1.000000  1.000000  0.000000 )  
               b(3) = (  0.000000 -1.000000  1.000000 )  


     PseudoPot. # 1 for Li read from file:
     ./pseudopot/Li.pbe-mt_fhi.UPF
     MD5 check sum: 3419f5616d131090147e867976aae79b
     Pseudo is Norm-conserving + core correction, Zval =  1.0
     Generated using FHI98PP, converted with fhi2upf.x v.5.0.2
     Using radial grid of  433 points,  3 beta functions with: 
                l(1) =   0
                l(2) =   1
                l(3) =   3

     atomic species   valence    mass     pseudopotential
     Li                1.00     6.94000     Li( 1.00)

     48 Sym. Ops., with inversion, found



   Cartesian axes

     site n.     atom                  positions (alat units)
         1        Li     tau(   1) = (   0.0000000   0.0000000   0.0000000  )

     number of k points=    44  Methfessel-Paxton smearing, width (Ry)=  0.0100
                       cart. coord. in units 2pi/alat
        k(    1) = (   0.0000000   0.0000000   0.1000000), wk =   0.0120000
        k(    2) = (   0.0000000  -0.1000000   0.2000000), wk =   0.0480000
        k(    3) = (   0.0000000  -0.2000000   0.3000000), wk =   0.0480000
        k(    4) = (   0.0000000  -0.3000000   0.4000000), wk =   0.0480000
        k(    5) = (   0.0000000  -0.4000000   0.5000000), wk =   0.0480000
        k(    6) = (  -0.1000000   0.1000000   0.1000000), wk =   0.0160000
        k(    7) = (  -0.1000000  -0.1000000   0.3000000), wk =   0.0480000
        k(    8) = (  -0.1000000  -0.2000000   0.4000000), wk =   0.0960000
        k(    9) = (  -0.1000000  -0.3000000   0.5000000), wk =   0.0960000
        k(   10) = (  -0.1000000   0.6000000  -0.4000000), wk =   0.0480000
        k(   11) = (  -0.2000000   0.2000000   0.1000000), wk =   0.0480000
        k(   12) = (  -0.2000000  -0.2000000   0.5000000), wk =   0.0480000
        k(   13) = (  -0.2000000   0.7000000  -0.4000000), wk =   0.0960000
        k(   14) = (  -0.3000000   0.3000000   0.1000000), wk =   0.0480000
        k(   15) = (  -0.3000000   0.2000000   0.2000000), wk =   0.0480000
        k(   16) = (  -0.3000000   0.7000000  -0.3000000), wk =   0.0160000
        k(   17) = (  -0.4000000   0.4000000   0.1000000), wk =   0.0480000
        k(   18) = (  -0.4000000   0.3000000   0.2000000), wk =   0.0960000
        k(   19) = (   0.5000000  -0.5000000   0.1000000), wk =   0.0240000
        k(   20) = (   0.5000000  -0.6000000   0.2000000), wk =   0.0960000
        k(   21) = (   0.5000000  -0.7000000   0.3000000), wk =   0.0480000
        k(   22) = (   0.4000000  -0.6000000   0.3000000), wk =   0.0480000
        k(   23) = (   0.0000000   0.0000000   0.3000000), wk =   0.0120000
        k(   24) = (   0.0000000  -0.1000000   0.4000000), wk =   0.0480000
        k(   25) = (   0.0000000  -0.2000000   0.5000000), wk =   0.0480000
        k(   26) = (   0.0000000  -0.3000000   0.6000000), wk =   0.0480000
        k(   27) = (  -0.1000000  -0.1000000   0.5000000), wk =   0.0480000
        k(   28) = (  -0.1000000  -0.2000000   0.6000000), wk =   0.0960000
        k(   29) = (  -0.1000000   0.7000000  -0.3000000), wk =   0.0480000
        k(   30) = (  -0.2000000   0.8000000  -0.3000000), wk =   0.0480000
        k(   31) = (  -0.3000000   0.3000000   0.3000000), wk =   0.0160000
        k(   32) = (   0.6000000  -0.6000000   0.3000000), wk =   0.0480000
        k(   33) = (   0.5000000  -0.5000000   0.3000000), wk =   0.0240000
        k(   34) = (   0.5000000  -0.6000000   0.4000000), wk =   0.0480000
        k(   35) = (   0.0000000   0.0000000   0.5000000), wk =   0.0120000
        k(   36) = (   0.0000000  -0.1000000   0.6000000), wk =   0.0480000
        k(   37) = (   0.0000000  -0.2000000   0.7000000), wk =   0.0480000
        k(   38) = (  -0.1000000  -0.1000000   0.7000000), wk =   0.0480000
        k(   39) = (  -0.1000000   0.8000000  -0.2000000), wk =   0.0480000
        k(   40) = (   0.5000000  -0.5000000   0.5000000), wk =   0.0040000
        k(   41) = (   0.0000000   0.0000000   0.7000000), wk =   0.0120000
        k(   42) = (   0.0000000  -0.1000000   0.8000000), wk =   0.0480000
        k(   43) = (  -0.1000000   0.9000000  -0.1000000), wk =   0.0160000
        k(   44) = (   0.0000000   0.0000000   0.9000000), wk =   0.0120000

     Dense  grid:     1985 G-vectors     FFT dimensions: (  18,  18,  18)

     Estimated max dynamical RAM per process >       2.51 MB

     Initial potential from superposition of free atoms

     starting charge       0.9960, renormalised to       1.0000
     Starting wfcs are   16 randomized atomic wfcs

     total cpu time spent up to now is        0.1 secs

     Self-consistent Calculation

     iteration #  1     ecut=    20.00 Ry     beta= 0.70
     Davidson diagonalization with overlap
     ethr =  1.00E-02,  avg # of iterations =  5.1

     Threshold (ethr) on eigenvalues was too large:
     Diagonalizing with lowered threshold

     Davidson diagonalization with overlap
     ethr =  1.65E-05,  avg # of iterations =  4.2

     total cpu time spent up to now is        0.3 secs

     total energy              =      -0.69197308 Ry
     estimated scf accuracy    <       0.00016644 Ry

     iteration #  2     ecut=    20.00 Ry     beta= 0.70
     Davidson diagonalization with overlap
     ethr =  1.66E-05,  avg # of iterations =  1.0

     total cpu time spent up to now is        0.4 secs

     total energy              =      -0.69197444 Ry
     estimated scf accuracy    <       0.00001529 Ry

     iteration #  3     ecut=    20.00 Ry     beta= 0.70
     Davidson diagonalization with overlap
     ethr =  1.53E-06,  avg # of iterations =  1.1

     total cpu time spent up to now is        0.4 secs

     End of self-consistent calculation

          k = 0.0000 0.0000 0.1000 (   245 PWs)   bands (ev):

    -3.2144  12.1435  12.1435  12.3590  15.9348

          k = 0.0000-0.1000 0.2000 (   251 PWs)   bands (ev):

    -2.8613  10.2627  11.0293  11.9188  14.4061

          k = 0.0000-0.2000 0.3000 (   252 PWs)   bands (ev):

    -2.1578   7.5422   9.9168  11.2456  13.7867

          k = 0.0000-0.3000 0.4000 (   254 PWs)   bands (ev):

    -1.1262   5.0019   9.1215  10.6442  12.9187

          k = 0.0000-0.4000 0.5000 (   259 PWs)   bands (ev):

     0.0580   3.0389   8.7144  10.3116  12.4821

          k =-0.1000 0.1000 0.1000 (   246 PWs)   bands (ev):

    -3.0380  11.2627  11.6398  11.6399  15.2481

          k =-0.1000-0.1000 0.3000 (   252 PWs)   bands (ev):

    -2.3314   8.8211   9.1984  11.3462  13.6455

          k =-0.1000-0.2000 0.4000 (   257 PWs)   bands (ev):

    -1.4554   6.3211   8.1545  10.7051  13.6143

          k =-0.1000-0.3000 0.5000 (   259 PWs)   bands (ev):

    -0.2848   4.0288   7.5684  10.2162  13.6092

          k =-0.1000 0.6000-0.4000 (   257 PWs)   bands (ev):

     0.6208   2.7395   7.3720  10.0415  13.5453

          k =-0.2000 0.2000 0.1000 (   250 PWs)   bands (ev):

    -2.5095   8.9591  10.2661  10.6392  14.7759

          k =-0.2000-0.2000 0.5000 (   252 PWs)   bands (ev):

    -0.4140   4.9342   6.4243  10.3032  13.8578

          k =-0.2000 0.7000-0.4000 (   255 PWs)   bands (ev):

     0.8522   3.2037   5.7852  10.0502  14.2589

          k =-0.3000 0.3000 0.1000 (   253 PWs)   bands (ev):

    -1.6364   6.2503   9.3942   9.7434  14.1696

          k =-0.3000 0.2000 0.2000 (   254 PWs)   bands (ev):

    -1.8070   7.4870   8.2165   9.5097  15.5357

          k =-0.3000 0.7000-0.3000 (   255 PWs)   bands (ev):

     2.1413   2.1413   5.0341   9.9904  15.4279

          k =-0.4000 0.4000 0.1000 (   253 PWs)   bands (ev):

    -0.4754   3.9291   8.8492   9.1664  13.6785

          k =-0.4000 0.3000 0.2000 (   254 PWs)   bands (ev):

    -0.7688   5.1492   7.2649   8.8654  15.5262

          k = 0.5000-0.5000 0.1000 (   258 PWs)   bands (ev):

     0.4042   2.6567   8.6641   8.9694  13.5002

          k = 0.5000-0.6000 0.2000 (   258 PWs)   bands (ev):

     0.4611   3.1687   6.8557   8.5353  15.4052

          k = 0.5000-0.7000 0.3000 (   254 PWs)   bands (ev):

     0.4204   3.8806   5.6638   8.4558  16.6241

          k = 0.4000-0.6000 0.3000 (   255 PWs)   bands (ev):

     1.4956   2.6611   5.2368   8.3166  16.7791

          k = 0.0000 0.0000 0.3000 (   257 PWs)   bands (ev):

    -2.5060   9.7945   9.7945  11.3830  12.3839

          k = 0.0000-0.1000 0.4000 (   252 PWs)   bands (ev):

    -1.7976   7.6810   8.6286  10.9145  11.8820

          k = 0.0000-0.2000 0.5000 (   253 PWs)   bands (ev):

    -0.7548   5.2342   7.8097  10.3684  12.5622

          k = 0.0000-0.3000 0.6000 (   256 PWs)   bands (ev):

     0.4665   3.2617   7.3931  10.0687  13.4379

          k =-0.1000-0.1000 0.5000 (   252 PWs)   bands (ev):

    -0.9133   6.3356   7.0938  10.9091  11.2372

          k =-0.1000-0.2000 0.6000 (   255 PWs)   bands (ev):

     0.2818   4.3164   6.3456  10.5636  12.0259

          k =-0.1000 0.7000-0.3000 (   249 PWs)   bands (ev):

     1.2683   2.9921   6.1320  10.4092  12.8136

          k =-0.2000 0.8000-0.3000 (   251 PWs)   bands (ev):

     1.5873   3.2045   5.2176  11.0908  12.2374

          k =-0.3000 0.3000 0.3000 (   258 PWs)   bands (ev):

    -0.9337   6.4615   6.4615   8.0173  16.8395

          k = 0.6000-0.6000 0.3000 (   255 PWs)   bands (ev):

     0.2596   4.2509   5.8328   7.5128  17.5356

          k = 0.5000-0.5000 0.3000 (   252 PWs)   bands (ev):

     1.2794   2.8651   5.6216   7.3625  17.7109

          k = 0.5000-0.6000 0.4000 (   253 PWs)   bands (ev):

     1.5825   3.2394   4.5414   7.1076  18.6658

          k = 0.0000 0.0000 0.5000 (   249 PWs)   bands (ev):

    -1.0793   7.4401   7.4401   9.7182  10.6388

          k = 0.0000-0.1000 0.6000 (   250 PWs)   bands (ev):

    -0.0166   5.6593   6.6115   9.4443  10.7112

          k = 0.0000-0.2000 0.7000 (   253 PWs)   bands (ev):

     1.2716   3.7298   6.1909   9.4555  11.6804

          k =-0.1000-0.1000 0.7000 (   253 PWs)   bands (ev):

     1.2063   4.6280   5.5749   9.5231  10.6209

          k =-0.1000 0.8000-0.2000 (   248 PWs)   bands (ev):

     2.3349   3.3942   5.2473   9.8388  11.3919

          k = 0.5000-0.5000 0.5000 (   240 PWs)   bands (ev):

     3.0248   3.0248   3.0248   6.7268  20.4371

          k = 0.0000 0.0000 0.7000 (   249 PWs)   bands (ev):

     1.0736   5.7787   5.7787   7.9406  10.1722

          k = 0.0000-0.1000 0.8000 (   249 PWs)   bands (ev):

     2.4381   4.4371   5.3563   8.1730   9.9112

          k =-0.1000 0.9000-0.1000 (   245 PWs)   bands (ev):

     3.7661   3.7661   4.8761   8.6552   8.6552

          k = 0.0000 0.0000 0.9000 (   245 PWs)   bands (ev):

     3.8492   4.9336   4.9336   7.0518   8.0335

     the Fermi energy is     0.0687 ev

!    total energy              =      -0.69197459 Ry
     estimated scf accuracy    <          2.3E-09 Ry
     smearing contrib. (-TS)   =       0.00000168 Ry
     internal energy E=F+TS    =      -0.69197627 Ry

     The total energy is F=E-TS. E is the sum of the following terms:
     one-electron contribution =       0.35496829 Ry
     hartree contribution      =       0.00071984 Ry
     xc contribution           =      -0.52403363 Ry
     ewald contribution        =      -0.52363076 Ry

     convergence has been achieved in   3 iterations

     Forces acting on atoms (cartesian axes, Ry/au):

     atom    1 type  1   force =     0.00000000    0.00000000    0.00000000

     Total force =     0.000000     Total SCF correction =     0.000000


     Computing stress (Cartesian axis) and pressure

          total   stress  (Ry/bohr**3)                   (kbar)     P=      -21.76
  -0.00014790  -0.00000000   0.00000000          -21.76       -0.00        0.00
  -0.00000000  -0.00014790  -0.00000000           -0.00      -21.76       -0.00
   0.00000000  -0.00000000  -0.00014790            0.00       -0.00      -21.76


     Writing all to output data dir ./QE-outdir/li.save/ :
     XML data file, charge density, pseudopotentials, collected wavefunctions

     init_run     :      0.07s CPU      0.08s WALL (       1 calls)
     electrons    :      0.24s CPU      0.34s WALL (       1 calls)
     forces       :      0.00s CPU      0.00s WALL (       1 calls)
     stress       :      0.03s CPU      0.03s WALL (       1 calls)

     Called by init_run:
     wfcinit      :      0.05s CPU      0.07s WALL (       1 calls)
     potinit      :      0.00s CPU      0.00s WALL (       1 calls)
     hinit0       :      0.01s CPU      0.01s WALL (       1 calls)

     Called by electrons:
     c_bands      :      0.21s CPU      0.31s WALL (       4 calls)
     sum_band     :      0.03s CPU      0.03s WALL (       4 calls)
     v_of_rho     :      0.00s CPU      0.00s WALL (       4 calls)
     mix_rho      :      0.00s CPU      0.00s WALL (       4 calls)

     Called by c_bands:
     init_us_2    :      0.01s CPU      0.01s WALL (     484 calls)
     cegterg      :      0.20s CPU      0.30s WALL (     176 calls)

     Called by *egterg:
     cdiaghg      :      0.07s CPU      0.18s WALL (     636 calls)
     h_psi        :      0.16s CPU      0.16s WALL (     724 calls)
     g_psi        :      0.00s CPU      0.00s WALL (     504 calls)

     Called by h_psi:
     h_psi:calbec :      0.00s CPU      0.00s WALL (     724 calls)
     vloc_psi     :      0.15s CPU      0.16s WALL (     724 calls)
                                        0.00s GPU  (     724 calls)
     add_vuspsi   :      0.00s CPU      0.00s WALL (     724 calls)

     General routines
     calbec       :      0.01s CPU      0.01s WALL (    1472 calls)
     fft          :      0.00s CPU      0.00s WALL (      65 calls)
     ffts         :      0.00s CPU      0.00s WALL (       4 calls)
     fftw         :      0.16s CPU      0.16s WALL (    7486 calls)

     Parallel routines

     PWSCF        :      0.35s CPU      0.47s WALL


   This run was terminated on:  14: 5: 9  26Jan2026            

=------------------------------------------------------------------------------=
   JOB DONE.
=------------------------------------------------------------------------------=
