
     Program PWSCF v.7.5 starts on 31Jan2026 at 23:33:21 

     This program is part of the open-source Quantum ESPRESSO suite
     for quantum simulation of materials; please cite
         "P. Giannozzi et al., J. Phys.:Condens. Matter 21 395502 (2009);
         "P. Giannozzi et al., J. Phys.:Condens. Matter 29 465901 (2017);
         "P. Giannozzi et al., J. Chem. Phys. 152 154105 (2020);
          URL http://www.quantum-espresso.org", 
     in publications or presentations arising from this work. More details at
     http://www.quantum-espresso.org/quote

     Parallel version (MPI), running on     1 processors

     MPI processes distributed on     1 nodes
     0 MiB available memory on the printing compute node when the environment starts

     Waiting for input...
     Reading input from standard input
     Message from routine read_cards :
     DEPRECATED: no units specified in ATOMIC_POSITIONS card
     Message from routine read_cards :
     ATOMIC_POSITIONS: units set to alat

     Current dimensions of program PWSCF are:
     Max number of different atomic species (ntypx) = 10
     Max number of k-points (npk) =  40000
     Max angular momentum in pseudopotentials (lmaxx) =  4
     file Li.pbe-mt_fhi.UPF: wavefunction(s)  2p 4f renormalized

     Subspace diagonalization in iterative solution of the eigenvalue problem:
     a serial algorithm will be used


     G-vector sticks info
     --------------------
     sticks:   dense  smooth     PW     G-vecs:    dense   smooth      PW
     Sum         197     197     67                 1721     1721     369

     Using Slab Decomposition



     bravais-lattice index     =            3
     lattice parameter (alat)  =       6.5400  a.u.
     unit-cell volume          =     139.8631 (a.u.)^3
     number of atoms/cell      =            1
     number of atomic types    =            1
     number of electrons       =         1.00
     number of Kohn-Sham states=            5
     kinetic-energy cutoff     =      20.0000  Ry
     charge density cutoff     =      80.0000  Ry
     scf convergence threshold =      1.0E-08
     mixing beta               =       0.7000
     number of iterations used =            8  plain     mixing
     Exchange-correlation= PBE
                           (   1   4   3   4   0   0   0)

     celldm(1)=   6.540000  celldm(2)=   0.000000  celldm(3)=   0.000000
     celldm(4)=   0.000000  celldm(5)=   0.000000  celldm(6)=   0.000000

     crystal axes: (cart. coord. in units of alat)
               a(1) = (   0.500000   0.500000   0.500000 )  
               a(2) = (  -0.500000   0.500000   0.500000 )  
               a(3) = (  -0.500000  -0.500000   0.500000 )  

     reciprocal axes: (cart. coord. in units 2 pi/alat)
               b(1) = (  1.000000  0.000000  1.000000 )  
               b(2) = ( -1.000000  1.000000  0.000000 )  
               b(3) = (  0.000000 -1.000000  1.000000 )  


     PseudoPot. # 1 for Li read from file:
     ./pseudopot/Li.pbe-mt_fhi.UPF
     MD5 check sum: 3419f5616d131090147e867976aae79b
     Pseudo is Norm-conserving + core correction, Zval =  1.0
     Generated using FHI98PP, converted with fhi2upf.x v.5.0.2
     Using radial grid of  433 points,  3 beta functions with: 
                l(1) =   0
                l(2) =   1
                l(3) =   3

     atomic species   valence    mass     pseudopotential
     Li                1.00     6.94000     Li( 1.00)

     48 Sym. Ops., with inversion, found



   Cartesian axes

     site n.     atom                  positions (alat units)
         1        Li     tau(   1) = (   0.0000000   0.0000000   0.0000000  )

     number of k points=    44  Methfessel-Paxton smearing, width (Ry)=  0.0100
                       cart. coord. in units 2pi/alat
        k(    1) = (   0.0000000   0.0000000   0.1000000), wk =   0.0120000
        k(    2) = (   0.0000000  -0.1000000   0.2000000), wk =   0.0480000
        k(    3) = (   0.0000000  -0.2000000   0.3000000), wk =   0.0480000
        k(    4) = (   0.0000000  -0.3000000   0.4000000), wk =   0.0480000
        k(    5) = (   0.0000000  -0.4000000   0.5000000), wk =   0.0480000
        k(    6) = (  -0.1000000   0.1000000   0.1000000), wk =   0.0160000
        k(    7) = (  -0.1000000  -0.1000000   0.3000000), wk =   0.0480000
        k(    8) = (  -0.1000000  -0.2000000   0.4000000), wk =   0.0960000
        k(    9) = (  -0.1000000  -0.3000000   0.5000000), wk =   0.0960000
        k(   10) = (  -0.1000000   0.6000000  -0.4000000), wk =   0.0480000
        k(   11) = (  -0.2000000   0.2000000   0.1000000), wk =   0.0480000
        k(   12) = (  -0.2000000  -0.2000000   0.5000000), wk =   0.0480000
        k(   13) = (  -0.2000000   0.7000000  -0.4000000), wk =   0.0960000
        k(   14) = (  -0.3000000   0.3000000   0.1000000), wk =   0.0480000
        k(   15) = (  -0.3000000   0.2000000   0.2000000), wk =   0.0480000
        k(   16) = (  -0.3000000   0.7000000  -0.3000000), wk =   0.0160000
        k(   17) = (  -0.4000000   0.4000000   0.1000000), wk =   0.0480000
        k(   18) = (  -0.4000000   0.3000000   0.2000000), wk =   0.0960000
        k(   19) = (   0.5000000  -0.5000000   0.1000000), wk =   0.0240000
        k(   20) = (   0.5000000  -0.6000000   0.2000000), wk =   0.0960000
        k(   21) = (   0.5000000  -0.7000000   0.3000000), wk =   0.0480000
        k(   22) = (   0.4000000  -0.6000000   0.3000000), wk =   0.0480000
        k(   23) = (   0.0000000   0.0000000   0.3000000), wk =   0.0120000
        k(   24) = (   0.0000000  -0.1000000   0.4000000), wk =   0.0480000
        k(   25) = (   0.0000000  -0.2000000   0.5000000), wk =   0.0480000
        k(   26) = (   0.0000000  -0.3000000   0.6000000), wk =   0.0480000
        k(   27) = (  -0.1000000  -0.1000000   0.5000000), wk =   0.0480000
        k(   28) = (  -0.1000000  -0.2000000   0.6000000), wk =   0.0960000
        k(   29) = (  -0.1000000   0.7000000  -0.3000000), wk =   0.0480000
        k(   30) = (  -0.2000000   0.8000000  -0.3000000), wk =   0.0480000
        k(   31) = (  -0.3000000   0.3000000   0.3000000), wk =   0.0160000
        k(   32) = (   0.6000000  -0.6000000   0.3000000), wk =   0.0480000
        k(   33) = (   0.5000000  -0.5000000   0.3000000), wk =   0.0240000
        k(   34) = (   0.5000000  -0.6000000   0.4000000), wk =   0.0480000
        k(   35) = (   0.0000000   0.0000000   0.5000000), wk =   0.0120000
        k(   36) = (   0.0000000  -0.1000000   0.6000000), wk =   0.0480000
        k(   37) = (   0.0000000  -0.2000000   0.7000000), wk =   0.0480000
        k(   38) = (  -0.1000000  -0.1000000   0.7000000), wk =   0.0480000
        k(   39) = (  -0.1000000   0.8000000  -0.2000000), wk =   0.0480000
        k(   40) = (   0.5000000  -0.5000000   0.5000000), wk =   0.0040000
        k(   41) = (   0.0000000   0.0000000   0.7000000), wk =   0.0120000
        k(   42) = (   0.0000000  -0.1000000   0.8000000), wk =   0.0480000
        k(   43) = (  -0.1000000   0.9000000  -0.1000000), wk =   0.0160000
        k(   44) = (   0.0000000   0.0000000   0.9000000), wk =   0.0120000

     Dense  grid:     1721 G-vectors     FFT dimensions: (  18,  18,  18)

     Estimated max dynamical RAM per process >       2.23 MB

     Initial potential from superposition of free atoms

     starting charge       0.9960, renormalised to       1.0000
     Starting wfcs are   16 randomized atomic wfcs

     total cpu time spent up to now is        0.1 secs

     Self-consistent Calculation

     iteration #  1     ecut=    20.00 Ry     beta= 0.70
     Davidson diagonalization with overlap
     ethr =  1.00E-02,  avg # of iterations =  4.6

     Threshold (ethr) on eigenvalues was too large:
     Diagonalizing with lowered threshold

     Davidson diagonalization with overlap
     ethr =  1.94E-05,  avg # of iterations =  3.9

     total cpu time spent up to now is        0.3 secs

     total energy              =      -0.69483132 Ry
     estimated scf accuracy    <       0.00019327 Ry

     iteration #  2     ecut=    20.00 Ry     beta= 0.70
     Davidson diagonalization with overlap
     ethr =  1.93E-05,  avg # of iterations =  1.0

     total cpu time spent up to now is        0.3 secs

     total energy              =      -0.69483054 Ry
     estimated scf accuracy    <       0.00001733 Ry

     iteration #  3     ecut=    20.00 Ry     beta= 0.70
     Davidson diagonalization with overlap
     ethr =  1.73E-06,  avg # of iterations =  1.3

     total cpu time spent up to now is        0.4 secs

     End of self-consistent calculation

          k = 0.0000 0.0000 0.1000 (   213 PWs)   bands (ev):

    -3.0318  14.2332  14.2333  14.5027  18.2932

          k = 0.0000-0.1000 0.2000 (   210 PWs)   bands (ev):

    -2.6507  12.0706  12.9400  13.9825  16.6278

          k = 0.0000-0.2000 0.3000 (   208 PWs)   bands (ev):

    -1.8912   8.9898  11.6668  13.1871  15.9127

          k = 0.0000-0.3000 0.4000 (   210 PWs)   bands (ev):

    -0.7810   6.1552  10.7613  12.4871  14.9314

          k = 0.0000-0.4000 0.5000 (   209 PWs)   bands (ev):

     0.4628   4.0230  10.2988  12.1030  14.4380

          k =-0.1000 0.1000 0.1000 (   213 PWs)   bands (ev):

    -2.8416  13.2603  13.6208  13.6209  17.5964

          k =-0.1000-0.1000 0.3000 (   207 PWs)   bands (ev):

    -2.0779  10.3678  10.9151  13.3157  15.7677

          k =-0.1000-0.2000 0.4000 (   209 PWs)   bands (ev):

    -1.1307   7.5811   9.7173  12.5603  15.7686

          k =-0.1000-0.3000 0.5000 (   211 PWs)   bands (ev):

     0.1257   5.0502   9.0508  11.9925  15.8208

          k =-0.1000 0.6000-0.4000 (   212 PWs)   bands (ev):

     1.0588   3.6808   8.8280  11.7902  15.7614

          k =-0.2000 0.2000 0.1000 (   205 PWs)   bands (ev):

    -2.2712  10.5776  12.1152  12.4437  17.0946

          k =-0.2000-0.2000 0.5000 (   214 PWs)   bands (ev):

    -0.0021   5.9429   7.8806  12.0951  16.0148

          k =-0.2000 0.7000-0.4000 (   211 PWs)   bands (ev):

     1.3572   4.0442   7.1740  11.8076  16.5165

          k =-0.3000 0.3000 0.1000 (   205 PWs)   bands (ev):

    -1.3291   7.5314  11.1380  11.4092  16.3944

          k =-0.3000 0.2000 0.2000 (   206 PWs)   bands (ev):

    -1.5121   8.8387   9.8069  11.2475  17.9096

          k =-0.3000 0.7000-0.3000 (   212 PWs)   bands (ev):

     2.7794   2.7794   6.4281  11.7457  17.7891

          k =-0.4000 0.4000 0.1000 (   205 PWs)   bands (ev):

    -0.0871   4.9648  10.5249  10.7478  15.8283

          k =-0.4000 0.3000 0.2000 (   206 PWs)   bands (ev):

    -0.3902   6.2445   8.7058  10.5496  18.0084

          k = 0.5000-0.5000 0.1000 (   204 PWs)   bands (ev):

     0.8138   3.6162  10.3168  10.5226  15.6239

          k = 0.5000-0.6000 0.2000 (   210 PWs)   bands (ev):

     0.9170   4.0867   8.2328  10.1908  17.8663

          k = 0.5000-0.7000 0.3000 (   214 PWs)   bands (ev):

     0.8993   4.7472   6.9985  10.1262  19.3763

          k = 0.4000-0.6000 0.3000 (   214 PWs)   bands (ev):

     2.0480   3.4141   6.5330   9.9824  19.4570

          k = 0.0000 0.0000 0.3000 (   209 PWs)   bands (ev):

    -2.2659  11.5118  11.5118  13.4703  14.2828

          k = 0.0000-0.1000 0.4000 (   210 PWs)   bands (ev):

    -1.4982   9.1171  10.1807  12.8951  13.8008

          k = 0.0000-0.2000 0.5000 (   212 PWs)   bands (ev):

    -0.3700   6.3828   9.2495  12.2720  14.5943

          k = 0.0000-0.3000 0.6000 (   211 PWs)   bands (ev):

     0.9247   4.2311   8.7767  11.9387  15.6096

          k =-0.1000-0.1000 0.5000 (   213 PWs)   bands (ev):

    -0.5367   7.5412   8.5245  12.9429  13.0282

          k =-0.1000-0.2000 0.6000 (   215 PWs)   bands (ev):

     0.7576   5.3068   7.6874  12.4760  13.9853

          k =-0.1000 0.7000-0.3000 (   212 PWs)   bands (ev):

     1.7919   3.8917   7.4446  12.3016  14.8850

          k =-0.2000 0.8000-0.3000 (   213 PWs)   bands (ev):

     2.1794   3.9847   6.5515  13.0921  14.1703

          k =-0.3000 0.3000 0.3000 (   210 PWs)   bands (ev):

    -0.5664   7.6716   7.6716   9.7907  19.5023

          k = 0.6000-0.6000 0.3000 (   212 PWs)   bands (ev):

     0.7259   5.2067   6.9575   9.2704  20.2916

          k = 0.5000-0.5000 0.3000 (   210 PWs)   bands (ev):

     1.8034   3.7115   6.7180   9.1140  20.4803

          k = 0.5000-0.6000 0.4000 (   212 PWs)   bands (ev):

     2.1702   4.0207   5.5535   8.8806  21.6174

          k = 0.0000 0.0000 0.5000 (   209 PWs)   bands (ev):

    -0.7136   8.8261   8.8261  11.2721  12.7594

          k = 0.0000-0.1000 0.6000 (   214 PWs)   bands (ev):

     0.4464   6.8184   7.8847  11.0420  12.8090

          k = 0.0000-0.2000 0.7000 (   215 PWs)   bands (ev):

     1.8346   4.6934   7.4077  11.2136  13.7487

          k =-0.1000-0.1000 0.7000 (   214 PWs)   bands (ev):

     1.7862   5.6051   6.7984  11.0877  12.7267

          k =-0.1000 0.8000-0.2000 (   215 PWs)   bands (ev):

     3.0008   4.2557   6.4482  11.5366  13.2117

          k = 0.5000-0.5000 0.5000 (   216 PWs)   bands (ev):

     3.7773   3.7773   3.7773   8.5556  23.6290

          k = 0.0000 0.0000 0.7000 (   212 PWs)   bands (ev):

     1.6516   6.9395   6.9395   9.2645  12.2836

          k = 0.0000-0.1000 0.8000 (   220 PWs)   bands (ev):

     3.1516   5.4340   6.4602   9.5785  11.6728

          k =-0.1000 0.9000-0.1000 (   224 PWs)   bands (ev):

     4.6286   4.6286   5.9858  10.1058  10.1058

          k = 0.0000 0.0000 0.9000 (   228 PWs)   bands (ev):

     4.7431   5.9802   5.9802   8.2606   9.4129

     the Fermi energy is     0.4930 ev

!    total energy              =      -0.69483063 Ry
     estimated scf accuracy    <          1.0E-09 Ry
     smearing contrib. (-TS)   =      -0.00006354 Ry
     internal energy E=F+TS    =      -0.69476708 Ry

     The total energy is F=E-TS. E is the sum of the following terms:
     one-electron contribution =       0.40623073 Ry
     hartree contribution      =       0.00100811 Ry
     xc contribution           =      -0.54554818 Ry
     ewald contribution        =      -0.55645775 Ry

     convergence has been achieved in   3 iterations

     Forces acting on atoms (cartesian axes, Ry/au):

     atom    1 type  1   force =     0.00000000    0.00000000    0.00000000

     Total force =     0.000000     Total SCF correction =     0.000000


     Computing stress (Cartesian axis) and pressure

          total   stress  (Ry/bohr**3)                   (kbar)     P=       -6.45
  -0.00004385   0.00000000   0.00000000           -6.45        0.00        0.00
   0.00000000  -0.00004385   0.00000000            0.00       -6.45        0.00
  -0.00000000   0.00000000  -0.00004385           -0.00        0.00       -6.45


     Writing all to output data dir ./QE-outdir/li.save/ :
     XML data file, charge density, pseudopotentials, collected wavefunctions

     init_run     :      0.06s CPU      0.08s WALL (       1 calls)
     electrons    :      0.22s CPU      0.31s WALL (       1 calls)
     forces       :      0.00s CPU      0.00s WALL (       1 calls)
     stress       :      0.03s CPU      0.03s WALL (       1 calls)

     Called by init_run:
     wfcinit      :      0.05s CPU      0.06s WALL (       1 calls)
     potinit      :      0.00s CPU      0.00s WALL (       1 calls)
     hinit0       :      0.01s CPU      0.01s WALL (       1 calls)

     Called by electrons:
     c_bands      :      0.19s CPU      0.28s WALL (       4 calls)
     sum_band     :      0.03s CPU      0.03s WALL (       4 calls)
     v_of_rho     :      0.00s CPU      0.00s WALL (       4 calls)
     mix_rho      :      0.00s CPU      0.00s WALL (       4 calls)

     Called by c_bands:
     init_us_2    :      0.01s CPU      0.01s WALL (     484 calls)
     cegterg      :      0.18s CPU      0.27s WALL (     176 calls)

     Called by *egterg:
     cdiaghg      :      0.07s CPU      0.17s WALL (     609 calls)
     h_psi        :      0.14s CPU      0.15s WALL (     697 calls)
     g_psi        :      0.00s CPU      0.00s WALL (     477 calls)

     Called by h_psi:
     h_psi:calbec :      0.00s CPU      0.00s WALL (     697 calls)
     vloc_psi     :      0.14s CPU      0.14s WALL (     697 calls)
                                        0.00s GPU  (     697 calls)
     add_vuspsi   :      0.00s CPU      0.00s WALL (     697 calls)

     General routines
     calbec       :      0.01s CPU      0.01s WALL (    1445 calls)
     fft          :      0.00s CPU      0.00s WALL (      65 calls)
     ffts         :      0.00s CPU      0.00s WALL (       4 calls)
     fftw         :      0.14s CPU      0.14s WALL (    7302 calls)

     Parallel routines

     PWSCF        :      0.32s CPU      0.43s WALL


   This run was terminated on:  23:33:22  31Jan2026            

=------------------------------------------------------------------------------=
   JOB DONE.
=------------------------------------------------------------------------------=
