
     Program PWSCF v.7.5 starts on 26Jan2026 at 14: 5: 0 

     This program is part of the open-source Quantum ESPRESSO suite
     for quantum simulation of materials; please cite
         "P. Giannozzi et al., J. Phys.:Condens. Matter 21 395502 (2009);
         "P. Giannozzi et al., J. Phys.:Condens. Matter 29 465901 (2017);
         "P. Giannozzi et al., J. Chem. Phys. 152 154105 (2020);
          URL http://www.quantum-espresso.org", 
     in publications or presentations arising from this work. More details at
     http://www.quantum-espresso.org/quote

     Parallel version (MPI), running on     1 processors

     MPI processes distributed on     1 nodes
     0 MiB available memory on the printing compute node when the environment starts

     Waiting for input...
     Reading input from standard input
     Message from routine read_cards :
     DEPRECATED: no units specified in ATOMIC_POSITIONS card
     Message from routine read_cards :
     ATOMIC_POSITIONS: units set to alat

     Current dimensions of program PWSCF are:
     Max number of different atomic species (ntypx) = 10
     Max number of k-points (npk) =  40000
     Max angular momentum in pseudopotentials (lmaxx) =  4
     file Li.pbe-mt_fhi.UPF: wavefunction(s)  2p 4f renormalized

     Subspace diagonalization in iterative solution of the eigenvalue problem:
     a serial algorithm will be used


     G-vector sticks info
     --------------------
     sticks:   dense  smooth     PW     G-vecs:    dense   smooth      PW
     Sum         169     169     63                 1409     1409     321

     Using Slab Decomposition



     bravais-lattice index     =            3
     lattice parameter (alat)  =       6.0500  a.u.
     unit-cell volume          =     110.7226 (a.u.)^3
     number of atoms/cell      =            1
     number of atomic types    =            1
     number of electrons       =         1.00
     number of Kohn-Sham states=            5
     kinetic-energy cutoff     =      20.0000  Ry
     charge density cutoff     =      80.0000  Ry
     scf convergence threshold =      1.0E-08
     mixing beta               =       0.7000
     number of iterations used =            8  plain     mixing
     Exchange-correlation= PBE
                           (   1   4   3   4   0   0   0)

     celldm(1)=   6.050000  celldm(2)=   0.000000  celldm(3)=   0.000000
     celldm(4)=   0.000000  celldm(5)=   0.000000  celldm(6)=   0.000000

     crystal axes: (cart. coord. in units of alat)
               a(1) = (   0.500000   0.500000   0.500000 )  
               a(2) = (  -0.500000   0.500000   0.500000 )  
               a(3) = (  -0.500000  -0.500000   0.500000 )  

     reciprocal axes: (cart. coord. in units 2 pi/alat)
               b(1) = (  1.000000  0.000000  1.000000 )  
               b(2) = ( -1.000000  1.000000  0.000000 )  
               b(3) = (  0.000000 -1.000000  1.000000 )  


     PseudoPot. # 1 for Li read from file:
     ./pseudopot/Li.pbe-mt_fhi.UPF
     MD5 check sum: 3419f5616d131090147e867976aae79b
     Pseudo is Norm-conserving + core correction, Zval =  1.0
     Generated using FHI98PP, converted with fhi2upf.x v.5.0.2
     Using radial grid of  433 points,  3 beta functions with: 
                l(1) =   0
                l(2) =   1
                l(3) =   3

     atomic species   valence    mass     pseudopotential
     Li                1.00     6.94000     Li( 1.00)

     48 Sym. Ops., with inversion, found



   Cartesian axes

     site n.     atom                  positions (alat units)
         1        Li     tau(   1) = (   0.0000000   0.0000000   0.0000000  )

     number of k points=    44  Methfessel-Paxton smearing, width (Ry)=  0.0100
                       cart. coord. in units 2pi/alat
        k(    1) = (   0.0000000   0.0000000   0.1000000), wk =   0.0120000
        k(    2) = (   0.0000000  -0.1000000   0.2000000), wk =   0.0480000
        k(    3) = (   0.0000000  -0.2000000   0.3000000), wk =   0.0480000
        k(    4) = (   0.0000000  -0.3000000   0.4000000), wk =   0.0480000
        k(    5) = (   0.0000000  -0.4000000   0.5000000), wk =   0.0480000
        k(    6) = (  -0.1000000   0.1000000   0.1000000), wk =   0.0160000
        k(    7) = (  -0.1000000  -0.1000000   0.3000000), wk =   0.0480000
        k(    8) = (  -0.1000000  -0.2000000   0.4000000), wk =   0.0960000
        k(    9) = (  -0.1000000  -0.3000000   0.5000000), wk =   0.0960000
        k(   10) = (  -0.1000000   0.6000000  -0.4000000), wk =   0.0480000
        k(   11) = (  -0.2000000   0.2000000   0.1000000), wk =   0.0480000
        k(   12) = (  -0.2000000  -0.2000000   0.5000000), wk =   0.0480000
        k(   13) = (  -0.2000000   0.7000000  -0.4000000), wk =   0.0960000
        k(   14) = (  -0.3000000   0.3000000   0.1000000), wk =   0.0480000
        k(   15) = (  -0.3000000   0.2000000   0.2000000), wk =   0.0480000
        k(   16) = (  -0.3000000   0.7000000  -0.3000000), wk =   0.0160000
        k(   17) = (  -0.4000000   0.4000000   0.1000000), wk =   0.0480000
        k(   18) = (  -0.4000000   0.3000000   0.2000000), wk =   0.0960000
        k(   19) = (   0.5000000  -0.5000000   0.1000000), wk =   0.0240000
        k(   20) = (   0.5000000  -0.6000000   0.2000000), wk =   0.0960000
        k(   21) = (   0.5000000  -0.7000000   0.3000000), wk =   0.0480000
        k(   22) = (   0.4000000  -0.6000000   0.3000000), wk =   0.0480000
        k(   23) = (   0.0000000   0.0000000   0.3000000), wk =   0.0120000
        k(   24) = (   0.0000000  -0.1000000   0.4000000), wk =   0.0480000
        k(   25) = (   0.0000000  -0.2000000   0.5000000), wk =   0.0480000
        k(   26) = (   0.0000000  -0.3000000   0.6000000), wk =   0.0480000
        k(   27) = (  -0.1000000  -0.1000000   0.5000000), wk =   0.0480000
        k(   28) = (  -0.1000000  -0.2000000   0.6000000), wk =   0.0960000
        k(   29) = (  -0.1000000   0.7000000  -0.3000000), wk =   0.0480000
        k(   30) = (  -0.2000000   0.8000000  -0.3000000), wk =   0.0480000
        k(   31) = (  -0.3000000   0.3000000   0.3000000), wk =   0.0160000
        k(   32) = (   0.6000000  -0.6000000   0.3000000), wk =   0.0480000
        k(   33) = (   0.5000000  -0.5000000   0.3000000), wk =   0.0240000
        k(   34) = (   0.5000000  -0.6000000   0.4000000), wk =   0.0480000
        k(   35) = (   0.0000000   0.0000000   0.5000000), wk =   0.0120000
        k(   36) = (   0.0000000  -0.1000000   0.6000000), wk =   0.0480000
        k(   37) = (   0.0000000  -0.2000000   0.7000000), wk =   0.0480000
        k(   38) = (  -0.1000000  -0.1000000   0.7000000), wk =   0.0480000
        k(   39) = (  -0.1000000   0.8000000  -0.2000000), wk =   0.0480000
        k(   40) = (   0.5000000  -0.5000000   0.5000000), wk =   0.0040000
        k(   41) = (   0.0000000   0.0000000   0.7000000), wk =   0.0120000
        k(   42) = (   0.0000000  -0.1000000   0.8000000), wk =   0.0480000
        k(   43) = (  -0.1000000   0.9000000  -0.1000000), wk =   0.0160000
        k(   44) = (   0.0000000   0.0000000   0.9000000), wk =   0.0120000

     Dense  grid:     1409 G-vectors     FFT dimensions: (  15,  15,  15)

     Estimated max dynamical RAM per process >       1.76 MB

     Initial potential from superposition of free atoms

     starting charge       0.9960, renormalised to       1.0000
     Starting wfcs are   16 randomized atomic wfcs

     total cpu time spent up to now is        0.1 secs

     Self-consistent Calculation

     iteration #  1     ecut=    20.00 Ry     beta= 0.70
     Davidson diagonalization with overlap
     ethr =  1.00E-02,  avg # of iterations =  4.4

     Threshold (ethr) on eigenvalues was too large:
     Diagonalizing with lowered threshold

     Davidson diagonalization with overlap
     ethr =  3.03E-05,  avg # of iterations =  3.2

     total cpu time spent up to now is        0.2 secs

     total energy              =      -0.69276620 Ry
     estimated scf accuracy    <       0.00030532 Ry

     iteration #  2     ecut=    20.00 Ry     beta= 0.70
     Davidson diagonalization with overlap
     ethr =  3.05E-05,  avg # of iterations =  1.0

     total cpu time spent up to now is        0.2 secs

     total energy              =      -0.69276331 Ry
     estimated scf accuracy    <       0.00002683 Ry

     iteration #  3     ecut=    20.00 Ry     beta= 0.70
     Davidson diagonalization with overlap
     ethr =  2.68E-06,  avg # of iterations =  1.2

     total cpu time spent up to now is        0.3 secs

     End of self-consistent calculation

          k = 0.0000 0.0000 0.1000 (   169 PWs)   bands (ev):

    -2.6700  17.3248  17.3248  17.6797  21.7783

          k = 0.0000-0.1000 0.2000 (   167 PWs)   bands (ev):

    -2.2574  14.7385  15.7652  17.0333  19.9162

          k = 0.0000-0.2000 0.3000 (   168 PWs)   bands (ev):

    -1.4337  11.1359  14.2537  16.0532  19.0555

          k = 0.0000-0.3000 0.4000 (   168 PWs)   bands (ev):

    -0.2330   7.8856  13.1849  15.2076  17.9075

          k = 0.0000-0.4000 0.5000 (   168 PWs)   bands (ev):

     1.0722   5.5258  12.6390  14.7470  17.3306

          k =-0.1000 0.1000 0.1000 (   165 PWs)   bands (ev):

    -2.4644  16.2186  16.5469  16.5469  21.0752

          k =-0.1000-0.1000 0.3000 (   170 PWs)   bands (ev):

    -1.6350  12.6524  13.4554  16.2230  18.9073

          k =-0.1000-0.2000 0.4000 (   167 PWs)   bands (ev):

    -0.6033   9.4456  12.0432  15.2984  18.9516

          k =-0.1000-0.3000 0.5000 (   169 PWs)   bands (ev):

     0.7543   6.5817  11.2597  14.6140  19.0873

          k =-0.1000 0.6000-0.4000 (   170 PWs)   bands (ev):

     1.7157   5.1039  10.9985  14.3716  19.0340

          k =-0.2000 0.2000 0.1000 (   167 PWs)   bands (ev):

    -1.8466  12.9642  14.8597  15.1053  20.5268

          k =-0.2000-0.2000 0.5000 (   172 PWs)   bands (ev):

     0.6347   7.4391  10.0656  14.7417  19.2045

          k =-0.2000 0.7000-0.4000 (   165 PWs)   bands (ev):

     2.1138   5.2910   9.2758  14.4049  19.8452

          k =-0.3000 0.3000 0.1000 (   167 PWs)   bands (ev):

    -0.8244   9.4347  13.7277  13.8670  19.6811

          k =-0.3000 0.2000 0.2000 (   167 PWs)   bands (ev):

    -1.0210  10.8378  12.1418  13.8514  21.5632

          k =-0.3000 0.7000-0.3000 (   161 PWs)   bands (ev):

     3.7308   3.7308   8.5362  14.3439  21.2789

          k =-0.4000 0.4000 0.1000 (   170 PWs)   bands (ev):

     0.5094   6.5279  13.0138  13.0813  19.0030

          k =-0.4000 0.3000 0.2000 (   169 PWs)   bands (ev):

     0.2018   7.8665  10.8318  13.0831  21.6663

          k = 0.5000-0.5000 0.1000 (   170 PWs)   bands (ev):

     1.4287   5.0770  12.7710  12.8142  18.7592

          k = 0.5000-0.6000 0.2000 (   167 PWs)   bands (ev):

     1.6014   5.4619  10.2659  12.6879  21.4892

          k = 0.5000-0.7000 0.3000 (   165 PWs)   bands (ev):

     1.6231   6.0350   8.9737  12.6550  23.1882

          k = 0.4000-0.6000 0.3000 (   162 PWs)   bands (ev):

     2.8735   4.5305   8.4577  12.5100  23.3854

          k = 0.0000 0.0000 0.3000 (   165 PWs)   bands (ev):

    -1.8378  14.0501  14.0502  16.5554  17.0926

          k = 0.0000-0.1000 0.4000 (   165 PWs)   bands (ev):

    -0.9987  11.2399  12.4758  15.7876  16.6853

          k = 0.0000-0.2000 0.5000 (   169 PWs)   bands (ev):

     0.2329   8.0942  11.3785  15.0899  17.6086

          k = 0.0000-0.3000 0.6000 (   168 PWs)   bands (ev):

     1.6127   5.6967  10.8222  14.7151  18.8217

          k =-0.1000-0.1000 0.5000 (   169 PWs)   bands (ev):

     0.0594   9.3254  10.6470  15.6799  15.9584

          k =-0.1000-0.2000 0.6000 (   168 PWs)   bands (ev):

     1.4803   6.7761   9.6921  15.2930  16.9012

          k =-0.1000 0.7000-0.3000 (   162 PWs)   bands (ev):

     2.5749   5.2330   9.4095  15.1029  17.9543

          k =-0.2000 0.8000-0.3000 (   165 PWs)   bands (ev):

     3.0631   5.1452   8.5575  16.0463  17.0302

          k =-0.3000 0.3000 0.3000 (   168 PWs)   bands (ev):

     0.0133   9.4627   9.4627  12.4568  23.4435

          k = 0.6000-0.6000 0.3000 (   164 PWs)   bands (ev):

     1.4332   6.6235   8.6232  11.9363  24.6836

          k = 0.5000-0.5000 0.3000 (   162 PWs)   bands (ev):

     2.5868   4.9690   8.3421  11.7784  24.5722

          k = 0.5000-0.6000 0.4000 (   163 PWs)   bands (ev):

     3.0473   5.1828   7.0431  11.5932  26.8302

          k = 0.0000 0.0000 0.5000 (   168 PWs)   bands (ev):

    -0.1288  10.8758  10.8758  13.5745  15.9095

          k = 0.0000-0.1000 0.6000 (   169 PWs)   bands (ev):

     1.1584   8.5355   9.7691  13.3899  15.9496

          k = 0.0000-0.2000 0.7000 (   169 PWs)   bands (ev):

     2.6764   6.1332   9.2087  13.7940  16.8337

          k =-0.1000-0.1000 0.7000 (   171 PWs)   bands (ev):

     2.6576   7.0536   8.6150  13.4057  15.8287

          k =-0.1000 0.8000-0.2000 (   165 PWs)   bands (ev):

     3.9928   5.5314   8.2403  14.0257  15.9045

          k = 0.5000-0.5000 0.5000 (   152 PWs)   bands (ev):

     4.8979   4.8979   4.8979  11.3462  28.3730

          k = 0.0000 0.0000 0.7000 (   168 PWs)   bands (ev):

     2.5247   8.6576   8.6576  11.2284  15.3793

          k = 0.0000-0.1000 0.8000 (   169 PWs)   bands (ev):

     4.2145   6.9131   8.0957  11.6578  14.2246

          k =-0.1000 0.9000-0.1000 (   170 PWs)   bands (ev):

     5.9098   5.9098   7.6304  12.2565  12.2565

          k = 0.0000 0.0000 0.9000 (   172 PWs)   bands (ev):

     6.0688   7.5331   7.5331  10.0552  11.4550

     the Fermi energy is     1.1582 ev

!    total energy              =      -0.69276337 Ry
     estimated scf accuracy    <          5.9E-10 Ry
     smearing contrib. (-TS)   =      -0.00005873 Ry
     internal energy E=F+TS    =      -0.69270464 Ry

     The total energy is F=E-TS. E is the sum of the following terms:
     one-electron contribution =       0.48297432 Ry
     hartree contribution      =       0.00141140 Ry
     xc contribution           =      -0.57556415 Ry
     ewald contribution        =      -0.60152621 Ry

     convergence has been achieved in   3 iterations

     Forces acting on atoms (cartesian axes, Ry/au):

     atom    1 type  1   force =     0.00000000    0.00000000    0.00000000

     Total force =     0.000000     Total SCF correction =     0.000000


     Computing stress (Cartesian axis) and pressure

          total   stress  (Ry/bohr**3)                   (kbar)     P=       33.02
   0.00022448   0.00000000  -0.00000000           33.02        0.00       -0.00
   0.00000000   0.00022448   0.00000000            0.00       33.02        0.00
  -0.00000000   0.00000000   0.00022448           -0.00        0.00       33.02


     Writing all to output data dir ./QE-outdir/li.save/ :
     XML data file, charge density, pseudopotentials, collected wavefunctions

     init_run     :      0.04s CPU      0.05s WALL (       1 calls)
     electrons    :      0.12s CPU      0.22s WALL (       1 calls)
     forces       :      0.00s CPU      0.00s WALL (       1 calls)
     stress       :      0.02s CPU      0.02s WALL (       1 calls)

     Called by init_run:
     wfcinit      :      0.03s CPU      0.04s WALL (       1 calls)
     potinit      :      0.00s CPU      0.00s WALL (       1 calls)
     hinit0       :      0.01s CPU      0.01s WALL (       1 calls)

     Called by electrons:
     c_bands      :      0.11s CPU      0.21s WALL (       4 calls)
     sum_band     :      0.01s CPU      0.01s WALL (       4 calls)
     v_of_rho     :      0.00s CPU      0.00s WALL (       4 calls)
     mix_rho      :      0.00s CPU      0.00s WALL (       4 calls)

     Called by c_bands:
     init_us_2    :      0.01s CPU      0.01s WALL (     484 calls)
     cegterg      :      0.10s CPU      0.20s WALL (     176 calls)

     Called by *egterg:
     cdiaghg      :      0.06s CPU      0.17s WALL (     567 calls)
     h_psi        :      0.05s CPU      0.05s WALL (     655 calls)
     g_psi        :      0.00s CPU      0.00s WALL (     435 calls)

     Called by h_psi:
     h_psi:calbec :      0.00s CPU      0.00s WALL (     655 calls)
     vloc_psi     :      0.04s CPU      0.05s WALL (     655 calls)
                                        0.00s GPU  (     655 calls)
     add_vuspsi   :      0.00s CPU      0.00s WALL (     655 calls)

     General routines
     calbec       :      0.00s CPU      0.01s WALL (    1403 calls)
     fft          :      0.00s CPU      0.00s WALL (      65 calls)
     ffts         :      0.00s CPU      0.00s WALL (       4 calls)
     fftw         :      0.04s CPU      0.04s WALL (    7068 calls)

     Parallel routines

     PWSCF        :      0.19s CPU      0.31s WALL


   This run was terminated on:  14: 5: 1  26Jan2026            

=------------------------------------------------------------------------------=
   JOB DONE.
=------------------------------------------------------------------------------=
