
     Program PWSCF v.7.5 starts on 26Jan2026 at 14: 5: 1 

     This program is part of the open-source Quantum ESPRESSO suite
     for quantum simulation of materials; please cite
         "P. Giannozzi et al., J. Phys.:Condens. Matter 21 395502 (2009);
         "P. Giannozzi et al., J. Phys.:Condens. Matter 29 465901 (2017);
         "P. Giannozzi et al., J. Chem. Phys. 152 154105 (2020);
          URL http://www.quantum-espresso.org", 
     in publications or presentations arising from this work. More details at
     http://www.quantum-espresso.org/quote

     Parallel version (MPI), running on     1 processors

     MPI processes distributed on     1 nodes
     0 MiB available memory on the printing compute node when the environment starts

     Waiting for input...
     Reading input from standard input
     Message from routine read_cards :
     DEPRECATED: no units specified in ATOMIC_POSITIONS card
     Message from routine read_cards :
     ATOMIC_POSITIONS: units set to alat

     Current dimensions of program PWSCF are:
     Max number of different atomic species (ntypx) = 10
     Max number of k-points (npk) =  40000
     Max angular momentum in pseudopotentials (lmaxx) =  4
     file Li.pbe-mt_fhi.UPF: wavefunction(s)  2p 4f renormalized

     Subspace diagonalization in iterative solution of the eigenvalue problem:
     a serial algorithm will be used


     G-vector sticks info
     --------------------
     sticks:   dense  smooth     PW     G-vecs:    dense   smooth      PW
     Sum         173     173     63                 1433     1433     321

     Using Slab Decomposition



     bravais-lattice index     =            3
     lattice parameter (alat)  =       6.2000  a.u.
     unit-cell volume          =     119.1640 (a.u.)^3
     number of atoms/cell      =            1
     number of atomic types    =            1
     number of electrons       =         1.00
     number of Kohn-Sham states=            5
     kinetic-energy cutoff     =      20.0000  Ry
     charge density cutoff     =      80.0000  Ry
     scf convergence threshold =      1.0E-08
     mixing beta               =       0.7000
     number of iterations used =            8  plain     mixing
     Exchange-correlation= PBE
                           (   1   4   3   4   0   0   0)

     celldm(1)=   6.200000  celldm(2)=   0.000000  celldm(3)=   0.000000
     celldm(4)=   0.000000  celldm(5)=   0.000000  celldm(6)=   0.000000

     crystal axes: (cart. coord. in units of alat)
               a(1) = (   0.500000   0.500000   0.500000 )  
               a(2) = (  -0.500000   0.500000   0.500000 )  
               a(3) = (  -0.500000  -0.500000   0.500000 )  

     reciprocal axes: (cart. coord. in units 2 pi/alat)
               b(1) = (  1.000000  0.000000  1.000000 )  
               b(2) = ( -1.000000  1.000000  0.000000 )  
               b(3) = (  0.000000 -1.000000  1.000000 )  


     PseudoPot. # 1 for Li read from file:
     ./pseudopot/Li.pbe-mt_fhi.UPF
     MD5 check sum: 3419f5616d131090147e867976aae79b
     Pseudo is Norm-conserving + core correction, Zval =  1.0
     Generated using FHI98PP, converted with fhi2upf.x v.5.0.2
     Using radial grid of  433 points,  3 beta functions with: 
                l(1) =   0
                l(2) =   1
                l(3) =   3

     atomic species   valence    mass     pseudopotential
     Li                1.00     6.94000     Li( 1.00)

     48 Sym. Ops., with inversion, found



   Cartesian axes

     site n.     atom                  positions (alat units)
         1        Li     tau(   1) = (   0.0000000   0.0000000   0.0000000  )

     number of k points=    44  Methfessel-Paxton smearing, width (Ry)=  0.0100
                       cart. coord. in units 2pi/alat
        k(    1) = (   0.0000000   0.0000000   0.1000000), wk =   0.0120000
        k(    2) = (   0.0000000  -0.1000000   0.2000000), wk =   0.0480000
        k(    3) = (   0.0000000  -0.2000000   0.3000000), wk =   0.0480000
        k(    4) = (   0.0000000  -0.3000000   0.4000000), wk =   0.0480000
        k(    5) = (   0.0000000  -0.4000000   0.5000000), wk =   0.0480000
        k(    6) = (  -0.1000000   0.1000000   0.1000000), wk =   0.0160000
        k(    7) = (  -0.1000000  -0.1000000   0.3000000), wk =   0.0480000
        k(    8) = (  -0.1000000  -0.2000000   0.4000000), wk =   0.0960000
        k(    9) = (  -0.1000000  -0.3000000   0.5000000), wk =   0.0960000
        k(   10) = (  -0.1000000   0.6000000  -0.4000000), wk =   0.0480000
        k(   11) = (  -0.2000000   0.2000000   0.1000000), wk =   0.0480000
        k(   12) = (  -0.2000000  -0.2000000   0.5000000), wk =   0.0480000
        k(   13) = (  -0.2000000   0.7000000  -0.4000000), wk =   0.0960000
        k(   14) = (  -0.3000000   0.3000000   0.1000000), wk =   0.0480000
        k(   15) = (  -0.3000000   0.2000000   0.2000000), wk =   0.0480000
        k(   16) = (  -0.3000000   0.7000000  -0.3000000), wk =   0.0160000
        k(   17) = (  -0.4000000   0.4000000   0.1000000), wk =   0.0480000
        k(   18) = (  -0.4000000   0.3000000   0.2000000), wk =   0.0960000
        k(   19) = (   0.5000000  -0.5000000   0.1000000), wk =   0.0240000
        k(   20) = (   0.5000000  -0.6000000   0.2000000), wk =   0.0960000
        k(   21) = (   0.5000000  -0.7000000   0.3000000), wk =   0.0480000
        k(   22) = (   0.4000000  -0.6000000   0.3000000), wk =   0.0480000
        k(   23) = (   0.0000000   0.0000000   0.3000000), wk =   0.0120000
        k(   24) = (   0.0000000  -0.1000000   0.4000000), wk =   0.0480000
        k(   25) = (   0.0000000  -0.2000000   0.5000000), wk =   0.0480000
        k(   26) = (   0.0000000  -0.3000000   0.6000000), wk =   0.0480000
        k(   27) = (  -0.1000000  -0.1000000   0.5000000), wk =   0.0480000
        k(   28) = (  -0.1000000  -0.2000000   0.6000000), wk =   0.0960000
        k(   29) = (  -0.1000000   0.7000000  -0.3000000), wk =   0.0480000
        k(   30) = (  -0.2000000   0.8000000  -0.3000000), wk =   0.0480000
        k(   31) = (  -0.3000000   0.3000000   0.3000000), wk =   0.0160000
        k(   32) = (   0.6000000  -0.6000000   0.3000000), wk =   0.0480000
        k(   33) = (   0.5000000  -0.5000000   0.3000000), wk =   0.0240000
        k(   34) = (   0.5000000  -0.6000000   0.4000000), wk =   0.0480000
        k(   35) = (   0.0000000   0.0000000   0.5000000), wk =   0.0120000
        k(   36) = (   0.0000000  -0.1000000   0.6000000), wk =   0.0480000
        k(   37) = (   0.0000000  -0.2000000   0.7000000), wk =   0.0480000
        k(   38) = (  -0.1000000  -0.1000000   0.7000000), wk =   0.0480000
        k(   39) = (  -0.1000000   0.8000000  -0.2000000), wk =   0.0480000
        k(   40) = (   0.5000000  -0.5000000   0.5000000), wk =   0.0040000
        k(   41) = (   0.0000000   0.0000000   0.7000000), wk =   0.0120000
        k(   42) = (   0.0000000  -0.1000000   0.8000000), wk =   0.0480000
        k(   43) = (  -0.1000000   0.9000000  -0.1000000), wk =   0.0160000
        k(   44) = (   0.0000000   0.0000000   0.9000000), wk =   0.0120000

     Dense  grid:     1433 G-vectors     FFT dimensions: (  15,  15,  15)

     Estimated max dynamical RAM per process >       1.82 MB

     Initial potential from superposition of free atoms

     starting charge       0.9960, renormalised to       1.0000
     Starting wfcs are   16 randomized atomic wfcs

     total cpu time spent up to now is        0.1 secs

     Self-consistent Calculation

     iteration #  1     ecut=    20.00 Ry     beta= 0.70
     Davidson diagonalization with overlap
     ethr =  1.00E-02,  avg # of iterations =  4.3

     Threshold (ethr) on eigenvalues was too large:
     Diagonalizing with lowered threshold

     Davidson diagonalization with overlap
     ethr =  2.59E-05,  avg # of iterations =  3.8

     total cpu time spent up to now is        0.2 secs

     total energy              =      -0.69420485 Ry
     estimated scf accuracy    <       0.00025979 Ry

     iteration #  2     ecut=    20.00 Ry     beta= 0.70
     Davidson diagonalization with overlap
     ethr =  2.60E-05,  avg # of iterations =  1.0

     total cpu time spent up to now is        0.2 secs

     total energy              =      -0.69420266 Ry
     estimated scf accuracy    <       0.00002283 Ry

     iteration #  3     ecut=    20.00 Ry     beta= 0.70
     Davidson diagonalization with overlap
     ethr =  2.28E-06,  avg # of iterations =  1.4

     total cpu time spent up to now is        0.3 secs

     End of self-consistent calculation

          k = 0.0000 0.0000 0.1000 (   181 PWs)   bands (ev):

    -2.8019  16.2996  16.2996  16.6220  20.6221

          k = 0.0000-0.1000 0.2000 (   183 PWs)   bands (ev):

    -2.3984  13.8534  14.8267  16.0193  18.8245

          k = 0.0000-0.2000 0.3000 (   181 PWs)   bands (ev):

    -1.5934  10.4228  13.3943  15.1016  18.0126

          k = 0.0000-0.3000 0.4000 (   180 PWs)   bands (ev):

    -0.4194   7.3083  12.3797  14.3042  16.9199

          k = 0.0000-0.4000 0.5000 (   182 PWs)   bands (ev):

     0.8687   5.0212  11.8615  13.8690  16.3704

          k =-0.1000 0.1000 0.1000 (   183 PWs)   bands (ev):

    -2.6007  15.2341  15.5759  15.5759  19.9201

          k =-0.1000-0.1000 0.3000 (   179 PWs)   bands (ev):

    -1.7906  11.8948  12.6115  15.2581  17.8656

          k =-0.1000-0.2000 0.4000 (   180 PWs)   bands (ev):

    -0.7842   8.8265  11.2692  14.3891  17.8952

          k =-0.1000-0.3000 0.5000 (   177 PWs)   bands (ev):

     0.5432   6.0711  10.5247  13.7440  18.0040

          k =-0.1000 0.6000-0.4000 (   176 PWs)   bands (ev):

     1.4971   4.6279  10.2765  13.5151  17.9488

          k =-0.2000 0.2000 0.1000 (   178 PWs)   bands (ev):

    -1.9966  12.1727  13.9477  14.2219  19.3858

          k =-0.2000-0.2000 0.5000 (   177 PWs)   bands (ev):

     0.4201   6.9426   9.3369  13.8636  18.1467

          k =-0.2000 0.7000-0.4000 (   178 PWs)   bands (ev):

     1.8617   4.8769   8.5727  13.5425  18.7418

          k =-0.3000 0.3000 0.1000 (   179 PWs)   bands (ev):

    -0.9981   8.8017  12.8661  13.0512  18.5902

          k =-0.3000 0.2000 0.2000 (   177 PWs)   bands (ev):

    -1.1907  10.1743  11.3684  12.9827  20.3497

          k =-0.3000 0.7000-0.3000 (   185 PWs)   bands (ev):

     3.4140   3.4140   7.8309  13.4807  20.1201

          k =-0.4000 0.4000 0.1000 (   179 PWs)   bands (ev):

     0.3089   6.0054  12.1859  12.3068  17.9494

          k =-0.4000 0.3000 0.2000 (   175 PWs)   bands (ev):

     0.0015   7.3280  10.1269  12.2373  20.4553

          k = 0.5000-0.5000 0.1000 (   182 PWs)   bands (ev):

     1.2237   4.5869  11.9544  12.0537  17.7186

          k = 0.5000-0.6000 0.2000 (   178 PWs)   bands (ev):

     1.3731   5.0035   9.5918  11.8531  20.2890

          k = 0.5000-0.7000 0.3000 (   179 PWs)   bands (ev):

     1.3810   5.6071   8.3184  11.8085  21.9232

          k = 0.4000-0.6000 0.3000 (   177 PWs)   bands (ev):

     2.5988   4.1597   7.8186  11.6634  22.0855

          k = 0.0000 0.0000 0.3000 (   177 PWs)   bands (ev):

    -1.9891  13.2075  13.2075  15.5313  16.1600

          k = 0.0000-0.1000 0.4000 (   181 PWs)   bands (ev):

    -1.1715  10.5350  11.7132  14.8326  15.7217

          k = 0.0000-0.2000 0.5000 (   177 PWs)   bands (ev):

     0.0288   7.5246  10.6723  14.1548  16.6071

          k = 0.0000-0.3000 0.6000 (   179 PWs)   bands (ev):

     1.3831   5.2066  10.1432  13.7929  17.7561

          k =-0.1000-0.1000 0.5000 (   182 PWs)   bands (ev):

    -0.1432   8.7330   9.9413  14.7995  14.9566

          k =-0.1000-0.2000 0.6000 (   182 PWs)   bands (ev):

     1.2382   6.2878   9.0244  14.3591  15.9314

          k =-0.1000 0.7000-0.3000 (   181 PWs)   bands (ev):

     2.3140   4.7865   8.7545  14.1725  16.9348

          k =-0.2000 0.8000-0.3000 (   187 PWs)   bands (ev):

     2.7688   4.7593   7.8876  15.0650  16.0805

          k =-0.3000 0.3000 0.3000 (   183 PWs)   bands (ev):

    -0.1836   8.8679   8.8679  11.5664  22.1331

          k = 0.6000-0.6000 0.3000 (   178 PWs)   bands (ev):

     1.1962   6.1531   8.0702  11.0440  23.3121

          k = 0.5000-0.5000 0.3000 (   176 PWs)   bands (ev):

     2.3261   4.5509   7.8027  10.8859  23.2131

          k = 0.5000-0.6000 0.4000 (   175 PWs)   bands (ev):

     2.7558   4.7965   6.5494  10.6829  24.5292

          k = 0.0000 0.0000 0.5000 (   184 PWs)   bands (ev):

    -0.3283  10.1950  10.1950  12.8100  14.8623

          k = 0.0000-0.1000 0.6000 (   184 PWs)   bands (ev):

     0.9188   7.9651   9.1434  12.6116  14.9039

          k = 0.0000-0.2000 0.7000 (   179 PWs)   bands (ev):

     2.3962   5.6537   8.6115  12.9398  15.8075

          k =-0.1000-0.1000 0.7000 (   187 PWs)   bands (ev):

     2.3666   6.5727   8.0110  12.6361  14.8015

          k =-0.1000 0.8000-0.2000 (   186 PWs)   bands (ev):

     3.6628   5.1078   7.6436  13.2014  15.0103

          k = 0.5000-0.5000 0.5000 (   180 PWs)   bands (ev):

     4.5250   4.5250   4.5250  10.4100  26.7912

          k = 0.0000 0.0000 0.7000 (   180 PWs)   bands (ev):

     2.2324   8.0876   8.0876  10.5761  14.3564

          k = 0.0000-0.1000 0.8000 (   184 PWs)   bands (ev):

     3.8610   6.4218   7.5531  10.9676  13.3820

          k =-0.1000 0.9000-0.1000 (   182 PWs)   bands (ev):

     5.4842   5.4842   7.0850  11.5423  11.5423

          k = 0.0000 0.0000 0.9000 (   180 PWs)   bands (ev):

     5.6290   7.0179   7.0179   9.4591  10.7772

     the Fermi energy is     0.9323 ev

!    total energy              =      -0.69420272 Ry
     estimated scf accuracy    <          7.6E-10 Ry
     smearing contrib. (-TS)   =      -0.00007469 Ry
     internal energy E=F+TS    =      -0.69412804 Ry

     The total energy is F=E-TS. E is the sum of the following terms:
     one-electron contribution =       0.45736706 Ry
     hartree contribution      =       0.00128146 Ry
     xc contribution           =      -0.56580339 Ry
     ewald contribution        =      -0.58697317 Ry

     convergence has been achieved in   3 iterations

     Forces acting on atoms (cartesian axes, Ry/au):

     atom    1 type  1   force =     0.00000000    0.00000000    0.00000000

     Total force =     0.000000     Total SCF correction =     0.000000


     Computing stress (Cartesian axis) and pressure

          total   stress  (Ry/bohr**3)                   (kbar)     P=       17.43
   0.00011846  -0.00000000   0.00000000           17.43       -0.00        0.00
  -0.00000000   0.00011846  -0.00000000           -0.00       17.43       -0.00
   0.00000000  -0.00000000   0.00011846            0.00       -0.00       17.43


     Writing all to output data dir ./QE-outdir/li.save/ :
     XML data file, charge density, pseudopotentials, collected wavefunctions

     init_run     :      0.04s CPU      0.05s WALL (       1 calls)
     electrons    :      0.12s CPU      0.21s WALL (       1 calls)
     forces       :      0.00s CPU      0.00s WALL (       1 calls)
     stress       :      0.02s CPU      0.02s WALL (       1 calls)

     Called by init_run:
     wfcinit      :      0.03s CPU      0.04s WALL (       1 calls)
     potinit      :      0.00s CPU      0.00s WALL (       1 calls)
     hinit0       :      0.01s CPU      0.01s WALL (       1 calls)

     Called by electrons:
     c_bands      :      0.11s CPU      0.20s WALL (       4 calls)
     sum_band     :      0.01s CPU      0.01s WALL (       4 calls)
     v_of_rho     :      0.00s CPU      0.00s WALL (       4 calls)
     mix_rho      :      0.00s CPU      0.00s WALL (       4 calls)

     Called by c_bands:
     init_us_2    :      0.01s CPU      0.01s WALL (     484 calls)
     cegterg      :      0.11s CPU      0.19s WALL (     176 calls)

     Called by *egterg:
     cdiaghg      :      0.07s CPU      0.16s WALL (     594 calls)
     h_psi        :      0.05s CPU      0.05s WALL (     682 calls)
     g_psi        :      0.00s CPU      0.00s WALL (     462 calls)

     Called by h_psi:
     h_psi:calbec :      0.00s CPU      0.00s WALL (     682 calls)
     vloc_psi     :      0.05s CPU      0.05s WALL (     682 calls)
                                        0.00s GPU  (     682 calls)
     add_vuspsi   :      0.00s CPU      0.00s WALL (     682 calls)

     General routines
     calbec       :      0.01s CPU      0.01s WALL (    1430 calls)
     fft          :      0.00s CPU      0.00s WALL (      65 calls)
     ffts         :      0.00s CPU      0.00s WALL (       4 calls)
     fftw         :      0.04s CPU      0.04s WALL (    7198 calls)

     Parallel routines

     PWSCF        :      0.19s CPU      0.30s WALL


   This run was terminated on:  14: 5: 2  26Jan2026            

=------------------------------------------------------------------------------=
   JOB DONE.
=------------------------------------------------------------------------------=
