
     Program PWSCF v.7.5 starts on 26Jan2026 at 14: 5: 8 

     This program is part of the open-source Quantum ESPRESSO suite
     for quantum simulation of materials; please cite
         "P. Giannozzi et al., J. Phys.:Condens. Matter 21 395502 (2009);
         "P. Giannozzi et al., J. Phys.:Condens. Matter 29 465901 (2017);
         "P. Giannozzi et al., J. Chem. Phys. 152 154105 (2020);
          URL http://www.quantum-espresso.org", 
     in publications or presentations arising from this work. More details at
     http://www.quantum-espresso.org/quote

     Parallel version (MPI), running on     1 processors

     MPI processes distributed on     1 nodes
     0 MiB available memory on the printing compute node when the environment starts

     Waiting for input...
     Reading input from standard input
     Message from routine read_cards :
     DEPRECATED: no units specified in ATOMIC_POSITIONS card
     Message from routine read_cards :
     ATOMIC_POSITIONS: units set to alat

     Current dimensions of program PWSCF are:
     Max number of different atomic species (ntypx) = 10
     Max number of k-points (npk) =  40000
     Max angular momentum in pseudopotentials (lmaxx) =  4
     file Li.pbe-mt_fhi.UPF: wavefunction(s)  2p 4f renormalized

     Subspace diagonalization in iterative solution of the eigenvalue problem:
     a serial algorithm will be used


     G-vector sticks info
     --------------------
     sticks:   dense  smooth     PW     G-vecs:    dense   smooth      PW
     Sum         217     217     69                 1985     1985     381

     Using Slab Decomposition



     bravais-lattice index     =            3
     lattice parameter (alat)  =       6.9000  a.u.
     unit-cell volume          =     164.2545 (a.u.)^3
     number of atoms/cell      =            1
     number of atomic types    =            1
     number of electrons       =         1.00
     number of Kohn-Sham states=            5
     kinetic-energy cutoff     =      20.0000  Ry
     charge density cutoff     =      80.0000  Ry
     scf convergence threshold =      1.0E-08
     mixing beta               =       0.7000
     number of iterations used =            8  plain     mixing
     Exchange-correlation= PBE
                           (   1   4   3   4   0   0   0)

     celldm(1)=   6.900000  celldm(2)=   0.000000  celldm(3)=   0.000000
     celldm(4)=   0.000000  celldm(5)=   0.000000  celldm(6)=   0.000000

     crystal axes: (cart. coord. in units of alat)
               a(1) = (   0.500000   0.500000   0.500000 )  
               a(2) = (  -0.500000   0.500000   0.500000 )  
               a(3) = (  -0.500000  -0.500000   0.500000 )  

     reciprocal axes: (cart. coord. in units 2 pi/alat)
               b(1) = (  1.000000  0.000000  1.000000 )  
               b(2) = ( -1.000000  1.000000  0.000000 )  
               b(3) = (  0.000000 -1.000000  1.000000 )  


     PseudoPot. # 1 for Li read from file:
     ./pseudopot/Li.pbe-mt_fhi.UPF
     MD5 check sum: 3419f5616d131090147e867976aae79b
     Pseudo is Norm-conserving + core correction, Zval =  1.0
     Generated using FHI98PP, converted with fhi2upf.x v.5.0.2
     Using radial grid of  433 points,  3 beta functions with: 
                l(1) =   0
                l(2) =   1
                l(3) =   3

     atomic species   valence    mass     pseudopotential
     Li                1.00     6.94000     Li( 1.00)

     48 Sym. Ops., with inversion, found



   Cartesian axes

     site n.     atom                  positions (alat units)
         1        Li     tau(   1) = (   0.0000000   0.0000000   0.0000000  )

     number of k points=    44  Methfessel-Paxton smearing, width (Ry)=  0.0100
                       cart. coord. in units 2pi/alat
        k(    1) = (   0.0000000   0.0000000   0.1000000), wk =   0.0120000
        k(    2) = (   0.0000000  -0.1000000   0.2000000), wk =   0.0480000
        k(    3) = (   0.0000000  -0.2000000   0.3000000), wk =   0.0480000
        k(    4) = (   0.0000000  -0.3000000   0.4000000), wk =   0.0480000
        k(    5) = (   0.0000000  -0.4000000   0.5000000), wk =   0.0480000
        k(    6) = (  -0.1000000   0.1000000   0.1000000), wk =   0.0160000
        k(    7) = (  -0.1000000  -0.1000000   0.3000000), wk =   0.0480000
        k(    8) = (  -0.1000000  -0.2000000   0.4000000), wk =   0.0960000
        k(    9) = (  -0.1000000  -0.3000000   0.5000000), wk =   0.0960000
        k(   10) = (  -0.1000000   0.6000000  -0.4000000), wk =   0.0480000
        k(   11) = (  -0.2000000   0.2000000   0.1000000), wk =   0.0480000
        k(   12) = (  -0.2000000  -0.2000000   0.5000000), wk =   0.0480000
        k(   13) = (  -0.2000000   0.7000000  -0.4000000), wk =   0.0960000
        k(   14) = (  -0.3000000   0.3000000   0.1000000), wk =   0.0480000
        k(   15) = (  -0.3000000   0.2000000   0.2000000), wk =   0.0480000
        k(   16) = (  -0.3000000   0.7000000  -0.3000000), wk =   0.0160000
        k(   17) = (  -0.4000000   0.4000000   0.1000000), wk =   0.0480000
        k(   18) = (  -0.4000000   0.3000000   0.2000000), wk =   0.0960000
        k(   19) = (   0.5000000  -0.5000000   0.1000000), wk =   0.0240000
        k(   20) = (   0.5000000  -0.6000000   0.2000000), wk =   0.0960000
        k(   21) = (   0.5000000  -0.7000000   0.3000000), wk =   0.0480000
        k(   22) = (   0.4000000  -0.6000000   0.3000000), wk =   0.0480000
        k(   23) = (   0.0000000   0.0000000   0.3000000), wk =   0.0120000
        k(   24) = (   0.0000000  -0.1000000   0.4000000), wk =   0.0480000
        k(   25) = (   0.0000000  -0.2000000   0.5000000), wk =   0.0480000
        k(   26) = (   0.0000000  -0.3000000   0.6000000), wk =   0.0480000
        k(   27) = (  -0.1000000  -0.1000000   0.5000000), wk =   0.0480000
        k(   28) = (  -0.1000000  -0.2000000   0.6000000), wk =   0.0960000
        k(   29) = (  -0.1000000   0.7000000  -0.3000000), wk =   0.0480000
        k(   30) = (  -0.2000000   0.8000000  -0.3000000), wk =   0.0480000
        k(   31) = (  -0.3000000   0.3000000   0.3000000), wk =   0.0160000
        k(   32) = (   0.6000000  -0.6000000   0.3000000), wk =   0.0480000
        k(   33) = (   0.5000000  -0.5000000   0.3000000), wk =   0.0240000
        k(   34) = (   0.5000000  -0.6000000   0.4000000), wk =   0.0480000
        k(   35) = (   0.0000000   0.0000000   0.5000000), wk =   0.0120000
        k(   36) = (   0.0000000  -0.1000000   0.6000000), wk =   0.0480000
        k(   37) = (   0.0000000  -0.2000000   0.7000000), wk =   0.0480000
        k(   38) = (  -0.1000000  -0.1000000   0.7000000), wk =   0.0480000
        k(   39) = (  -0.1000000   0.8000000  -0.2000000), wk =   0.0480000
        k(   40) = (   0.5000000  -0.5000000   0.5000000), wk =   0.0040000
        k(   41) = (   0.0000000   0.0000000   0.7000000), wk =   0.0120000
        k(   42) = (   0.0000000  -0.1000000   0.8000000), wk =   0.0480000
        k(   43) = (  -0.1000000   0.9000000  -0.1000000), wk =   0.0160000
        k(   44) = (   0.0000000   0.0000000   0.9000000), wk =   0.0120000

     Dense  grid:     1985 G-vectors     FFT dimensions: (  18,  18,  18)

     Estimated max dynamical RAM per process >       2.49 MB

     Initial potential from superposition of free atoms

     starting charge       0.9960, renormalised to       1.0000
     Starting wfcs are   16 randomized atomic wfcs

     total cpu time spent up to now is        0.1 secs

     Self-consistent Calculation

     iteration #  1     ecut=    20.00 Ry     beta= 0.70
     Davidson diagonalization with overlap
     ethr =  1.00E-02,  avg # of iterations =  5.1

     Threshold (ethr) on eigenvalues was too large:
     Diagonalizing with lowered threshold

     Davidson diagonalization with overlap
     ethr =  1.68E-05,  avg # of iterations =  3.9

     total cpu time spent up to now is        0.3 secs

     total energy              =      -0.69248717 Ry
     estimated scf accuracy    <       0.00016703 Ry

     iteration #  2     ecut=    20.00 Ry     beta= 0.70
     Davidson diagonalization with overlap
     ethr =  1.67E-05,  avg # of iterations =  1.0

     total cpu time spent up to now is        0.4 secs

     total energy              =      -0.69248822 Ry
     estimated scf accuracy    <       0.00001531 Ry

     iteration #  3     ecut=    20.00 Ry     beta= 0.70
     Davidson diagonalization with overlap
     ethr =  1.53E-06,  avg # of iterations =  1.3

     total cpu time spent up to now is        0.4 secs

     End of self-consistent calculation

          k = 0.0000 0.0000 0.1000 (   237 PWs)   bands (ev):

    -3.1965  12.3786  12.3786  12.5996  16.1996

          k = 0.0000-0.1000 0.2000 (   246 PWs)   bands (ev):

    -2.8400  10.4657  11.2441  12.1507  14.6552

          k = 0.0000-0.2000 0.3000 (   246 PWs)   bands (ev):

    -2.1297   7.7046  10.1134  11.4637  14.0253

          k = 0.0000-0.3000 0.4000 (   251 PWs)   bands (ev):

    -1.0886   5.1306   9.3056  10.8509  13.1445

          k = 0.0000-0.4000 0.5000 (   251 PWs)   bands (ev):

     0.1031   3.1480   8.8924  10.5128  12.7016

          k =-0.1000 0.1000 0.1000 (   240 PWs)   bands (ev):

    -3.0184  11.4879  11.8623  11.8623  15.5113

          k =-0.1000-0.1000 0.3000 (   252 PWs)   bands (ev):

    -2.3050   8.9946   9.3908  11.5670  13.8836

          k =-0.1000-0.2000 0.4000 (   247 PWs)   bands (ev):

    -1.4203   6.4626   8.3295  10.9139  13.8562

          k =-0.1000-0.3000 0.5000 (   248 PWs)   bands (ev):

    -0.2394   4.1429   7.7344  10.4162  13.8575

          k =-0.1000 0.6000-0.4000 (   249 PWs)   bands (ev):

     0.6697   2.8442   7.5349  10.2379  13.7939

          k =-0.2000 0.2000 0.1000 (   246 PWs)   bands (ev):

    -2.4848   9.1409  10.4731  10.8420  15.0360

          k =-0.2000-0.2000 0.5000 (   248 PWs)   bands (ev):

    -0.3686   5.0472   6.5868  10.5041  14.0999

          k =-0.2000 0.7000-0.4000 (   251 PWs)   bands (ev):

     0.9085   3.2979   5.9395  10.2473  14.5126

          k =-0.3000 0.3000 0.1000 (   251 PWs)   bands (ev):

    -1.6035   6.3937   9.5895   9.9303  14.4192

          k =-0.3000 0.2000 0.2000 (   252 PWs)   bands (ev):

    -1.7755   7.6386   8.3952   9.7033  15.8106

          k =-0.3000 0.7000-0.3000 (   243 PWs)   bands (ev):

     2.2128   2.2128   5.1892  10.1877  15.6931

          k =-0.4000 0.4000 0.1000 (   253 PWs)   bands (ev):

    -0.4326   4.0444   9.0365   9.3437  13.9196

          k =-0.4000 0.3000 0.2000 (   249 PWs)   bands (ev):

    -0.7273   5.2721   7.4266   9.0527  15.8048

          k = 0.5000-0.5000 0.1000 (   258 PWs)   bands (ev):

     0.4497   2.7631   8.8489   9.1434  13.7384

          k = 0.5000-0.6000 0.2000 (   253 PWs)   bands (ev):

     0.5119   3.2712   7.0103   8.7194  15.6820

          k = 0.5000-0.7000 0.3000 (   250 PWs)   bands (ev):

     0.4736   3.9777   5.8134   8.6414  16.9248

          k = 0.4000-0.6000 0.3000 (   246 PWs)   bands (ev):

     1.5573   2.7457   5.3820   8.5017  17.0812

          k = 0.0000 0.0000 0.3000 (   249 PWs)   bands (ev):

    -2.4811   9.9877   9.9877  11.6175  12.5970

          k = 0.0000-0.1000 0.4000 (   247 PWs)   bands (ev):

    -1.7657   7.8422   8.8028  11.1373  12.0961

          k = 0.0000-0.2000 0.5000 (   249 PWs)   bands (ev):

    -0.7126   5.3627   7.9711  10.5817  12.7899

          k = 0.0000-0.3000 0.6000 (   250 PWs)   bands (ev):

     0.5175   3.3695   7.5482  10.2783  13.6822

          k =-0.1000-0.1000 0.5000 (   244 PWs)   bands (ev):

    -0.8722   6.4710   7.2543  11.1374  11.4381

          k =-0.1000-0.2000 0.6000 (   245 PWs)   bands (ev):

     0.3347   4.4275   6.4956  10.7785  12.2456

          k =-0.1000 0.7000-0.3000 (   245 PWs)   bands (ev):

     1.3267   3.0928   6.2786  10.6213  13.0458

          k =-0.2000 0.8000-0.3000 (   243 PWs)   bands (ev):

     1.6535   3.2919   5.3664  11.3162  12.4543

          k =-0.3000 0.3000 0.3000 (   252 PWs)   bands (ev):

    -0.8936   6.5973   6.5973   8.2148  17.1387

          k = 0.6000-0.6000 0.3000 (   245 PWs)   bands (ev):

     0.3114   4.3583   5.9589   7.7081  17.8442

          k = 0.5000-0.5000 0.3000 (   248 PWs)   bands (ev):

     1.3380   2.9600   5.7444   7.5565  18.0206

          k = 0.5000-0.6000 0.4000 (   248 PWs)   bands (ev):

     1.6482   3.3269   4.6553   7.3034  18.9974

          k = 0.0000 0.0000 0.5000 (   241 PWs)   bands (ev):

    -1.0395   7.5956   7.5956   9.8924  10.8761

          k = 0.0000-0.1000 0.6000 (   243 PWs)   bands (ev):

     0.0345   5.7895   6.7544   9.6245  10.9448

          k = 0.0000-0.2000 0.7000 (   249 PWs)   bands (ev):

     1.3344   3.8375   6.3273   9.6535  11.9114

          k =-0.1000-0.1000 0.7000 (   253 PWs)   bands (ev):

     1.2708   4.7374   5.7119   9.6985  10.8571

          k =-0.1000 0.8000-0.2000 (   248 PWs)   bands (ev):

     2.4093   3.4908   5.3814  10.0301  11.5959

          k = 0.5000-0.5000 0.5000 (   240 PWs)   bands (ev):

     3.1090   3.1090   3.1090   6.9293  20.7945

          k = 0.0000 0.0000 0.7000 (   249 PWs)   bands (ev):

     1.1378   5.9087   5.9087   8.0890  10.4094

          k = 0.0000-0.1000 0.8000 (   245 PWs)   bands (ev):

     2.5178   4.5489   5.4801   8.3308  10.1113

          k =-0.1000 0.9000-0.1000 (   245 PWs)   bands (ev):

     3.8627   3.8627   5.0004   8.8177   8.8177

          k = 0.0000 0.0000 0.9000 (   237 PWs)   bands (ev):

     3.9496   5.0510   5.0510   7.1872   8.1883

     the Fermi energy is     0.1152 ev

!    total energy              =      -0.69248836 Ry
     estimated scf accuracy    <          2.1E-09 Ry
     smearing contrib. (-TS)   =      -0.00000696 Ry
     internal energy E=F+TS    =      -0.69248140 Ry

     The total energy is F=E-TS. E is the sum of the following terms:
     one-electron contribution =       0.36069941 Ry
     hartree contribution      =       0.00075235 Ry
     xc contribution           =      -0.52650799 Ry
     ewald contribution        =      -0.52742517 Ry

     convergence has been achieved in   3 iterations

     Forces acting on atoms (cartesian axes, Ry/au):

     atom    1 type  1   force =     0.00000000    0.00000000    0.00000000

     Total force =     0.000000     Total SCF correction =     0.000000


     Computing stress (Cartesian axis) and pressure

          total   stress  (Ry/bohr**3)                   (kbar)     P=      -20.44
  -0.00013896  -0.00000000   0.00000000          -20.44       -0.00        0.00
   0.00000000  -0.00013896   0.00000000            0.00      -20.44        0.00
   0.00000000  -0.00000000  -0.00013896            0.00       -0.00      -20.44


     Writing all to output data dir ./QE-outdir/li.save/ :
     XML data file, charge density, pseudopotentials, collected wavefunctions

     init_run     :      0.06s CPU      0.08s WALL (       1 calls)
     electrons    :      0.23s CPU      0.33s WALL (       1 calls)
     forces       :      0.00s CPU      0.00s WALL (       1 calls)
     stress       :      0.03s CPU      0.03s WALL (       1 calls)

     Called by init_run:
     wfcinit      :      0.05s CPU      0.07s WALL (       1 calls)
     potinit      :      0.00s CPU      0.00s WALL (       1 calls)
     hinit0       :      0.01s CPU      0.01s WALL (       1 calls)

     Called by electrons:
     c_bands      :      0.20s CPU      0.30s WALL (       4 calls)
     sum_band     :      0.03s CPU      0.03s WALL (       4 calls)
     v_of_rho     :      0.00s CPU      0.00s WALL (       4 calls)
     mix_rho      :      0.00s CPU      0.00s WALL (       4 calls)

     Called by c_bands:
     init_us_2    :      0.01s CPU      0.01s WALL (     484 calls)
     cegterg      :      0.19s CPU      0.29s WALL (     176 calls)

     Called by *egterg:
     cdiaghg      :      0.07s CPU      0.18s WALL (     630 calls)
     h_psi        :      0.15s CPU      0.15s WALL (     718 calls)
     g_psi        :      0.00s CPU      0.00s WALL (     498 calls)

     Called by h_psi:
     h_psi:calbec :      0.00s CPU      0.00s WALL (     718 calls)
     vloc_psi     :      0.14s CPU      0.14s WALL (     718 calls)
                                        0.00s GPU  (     718 calls)
     add_vuspsi   :      0.00s CPU      0.00s WALL (     718 calls)

     General routines
     calbec       :      0.01s CPU      0.01s WALL (    1466 calls)
     fft          :      0.00s CPU      0.00s WALL (      65 calls)
     ffts         :      0.00s CPU      0.00s WALL (       4 calls)
     fftw         :      0.15s CPU      0.15s WALL (    7432 calls)

     Parallel routines

     PWSCF        :      0.33s CPU      0.46s WALL


   This run was terminated on:  14: 5: 8  26Jan2026            

=------------------------------------------------------------------------------=
   JOB DONE.
=------------------------------------------------------------------------------=
