
     Program PWSCF v.7.5 starts on 31Jan2026 at 23:33:25 

     This program is part of the open-source Quantum ESPRESSO suite
     for quantum simulation of materials; please cite
         "P. Giannozzi et al., J. Phys.:Condens. Matter 21 395502 (2009);
         "P. Giannozzi et al., J. Phys.:Condens. Matter 29 465901 (2017);
         "P. Giannozzi et al., J. Chem. Phys. 152 154105 (2020);
          URL http://www.quantum-espresso.org", 
     in publications or presentations arising from this work. More details at
     http://www.quantum-espresso.org/quote

     Parallel version (MPI), running on     1 processors

     MPI processes distributed on     1 nodes
     0 MiB available memory on the printing compute node when the environment starts

     Waiting for input...
     Reading input from standard input
     Message from routine read_cards :
     DEPRECATED: no units specified in ATOMIC_POSITIONS card
     Message from routine read_cards :
     ATOMIC_POSITIONS: units set to alat

     Current dimensions of program PWSCF are:
     Max number of different atomic species (ntypx) = 10
     Max number of k-points (npk) =  40000
     Max angular momentum in pseudopotentials (lmaxx) =  4
     file Li.pbe-mt_fhi.UPF: wavefunction(s)  2p 4f renormalized

     Subspace diagonalization in iterative solution of the eigenvalue problem:
     a serial algorithm will be used


     G-vector sticks info
     --------------------
     sticks:   dense  smooth     PW     G-vecs:    dense   smooth      PW
     Sum         205     205     69                 1865     1865     381

     Using Slab Decomposition



     bravais-lattice index     =            3
     lattice parameter (alat)  =       6.6800  a.u.
     unit-cell volume          =     149.0388 (a.u.)^3
     number of atoms/cell      =            1
     number of atomic types    =            1
     number of electrons       =         1.00
     number of Kohn-Sham states=            5
     kinetic-energy cutoff     =      20.0000  Ry
     charge density cutoff     =      80.0000  Ry
     scf convergence threshold =      1.0E-08
     mixing beta               =       0.7000
     number of iterations used =            8  plain     mixing
     Exchange-correlation= PBE
                           (   1   4   3   4   0   0   0)

     celldm(1)=   6.680000  celldm(2)=   0.000000  celldm(3)=   0.000000
     celldm(4)=   0.000000  celldm(5)=   0.000000  celldm(6)=   0.000000

     crystal axes: (cart. coord. in units of alat)
               a(1) = (   0.500000   0.500000   0.500000 )  
               a(2) = (  -0.500000   0.500000   0.500000 )  
               a(3) = (  -0.500000  -0.500000   0.500000 )  

     reciprocal axes: (cart. coord. in units 2 pi/alat)
               b(1) = (  1.000000  0.000000  1.000000 )  
               b(2) = ( -1.000000  1.000000  0.000000 )  
               b(3) = (  0.000000 -1.000000  1.000000 )  


     PseudoPot. # 1 for Li read from file:
     ./pseudopot/Li.pbe-mt_fhi.UPF
     MD5 check sum: 3419f5616d131090147e867976aae79b
     Pseudo is Norm-conserving + core correction, Zval =  1.0
     Generated using FHI98PP, converted with fhi2upf.x v.5.0.2
     Using radial grid of  433 points,  3 beta functions with: 
                l(1) =   0
                l(2) =   1
                l(3) =   3

     atomic species   valence    mass     pseudopotential
     Li                1.00     6.94000     Li( 1.00)

     48 Sym. Ops., with inversion, found



   Cartesian axes

     site n.     atom                  positions (alat units)
         1        Li     tau(   1) = (   0.0000000   0.0000000   0.0000000  )

     number of k points=    44  Methfessel-Paxton smearing, width (Ry)=  0.0100
                       cart. coord. in units 2pi/alat
        k(    1) = (   0.0000000   0.0000000   0.1000000), wk =   0.0120000
        k(    2) = (   0.0000000  -0.1000000   0.2000000), wk =   0.0480000
        k(    3) = (   0.0000000  -0.2000000   0.3000000), wk =   0.0480000
        k(    4) = (   0.0000000  -0.3000000   0.4000000), wk =   0.0480000
        k(    5) = (   0.0000000  -0.4000000   0.5000000), wk =   0.0480000
        k(    6) = (  -0.1000000   0.1000000   0.1000000), wk =   0.0160000
        k(    7) = (  -0.1000000  -0.1000000   0.3000000), wk =   0.0480000
        k(    8) = (  -0.1000000  -0.2000000   0.4000000), wk =   0.0960000
        k(    9) = (  -0.1000000  -0.3000000   0.5000000), wk =   0.0960000
        k(   10) = (  -0.1000000   0.6000000  -0.4000000), wk =   0.0480000
        k(   11) = (  -0.2000000   0.2000000   0.1000000), wk =   0.0480000
        k(   12) = (  -0.2000000  -0.2000000   0.5000000), wk =   0.0480000
        k(   13) = (  -0.2000000   0.7000000  -0.4000000), wk =   0.0960000
        k(   14) = (  -0.3000000   0.3000000   0.1000000), wk =   0.0480000
        k(   15) = (  -0.3000000   0.2000000   0.2000000), wk =   0.0480000
        k(   16) = (  -0.3000000   0.7000000  -0.3000000), wk =   0.0160000
        k(   17) = (  -0.4000000   0.4000000   0.1000000), wk =   0.0480000
        k(   18) = (  -0.4000000   0.3000000   0.2000000), wk =   0.0960000
        k(   19) = (   0.5000000  -0.5000000   0.1000000), wk =   0.0240000
        k(   20) = (   0.5000000  -0.6000000   0.2000000), wk =   0.0960000
        k(   21) = (   0.5000000  -0.7000000   0.3000000), wk =   0.0480000
        k(   22) = (   0.4000000  -0.6000000   0.3000000), wk =   0.0480000
        k(   23) = (   0.0000000   0.0000000   0.3000000), wk =   0.0120000
        k(   24) = (   0.0000000  -0.1000000   0.4000000), wk =   0.0480000
        k(   25) = (   0.0000000  -0.2000000   0.5000000), wk =   0.0480000
        k(   26) = (   0.0000000  -0.3000000   0.6000000), wk =   0.0480000
        k(   27) = (  -0.1000000  -0.1000000   0.5000000), wk =   0.0480000
        k(   28) = (  -0.1000000  -0.2000000   0.6000000), wk =   0.0960000
        k(   29) = (  -0.1000000   0.7000000  -0.3000000), wk =   0.0480000
        k(   30) = (  -0.2000000   0.8000000  -0.3000000), wk =   0.0480000
        k(   31) = (  -0.3000000   0.3000000   0.3000000), wk =   0.0160000
        k(   32) = (   0.6000000  -0.6000000   0.3000000), wk =   0.0480000
        k(   33) = (   0.5000000  -0.5000000   0.3000000), wk =   0.0240000
        k(   34) = (   0.5000000  -0.6000000   0.4000000), wk =   0.0480000
        k(   35) = (   0.0000000   0.0000000   0.5000000), wk =   0.0120000
        k(   36) = (   0.0000000  -0.1000000   0.6000000), wk =   0.0480000
        k(   37) = (   0.0000000  -0.2000000   0.7000000), wk =   0.0480000
        k(   38) = (  -0.1000000  -0.1000000   0.7000000), wk =   0.0480000
        k(   39) = (  -0.1000000   0.8000000  -0.2000000), wk =   0.0480000
        k(   40) = (   0.5000000  -0.5000000   0.5000000), wk =   0.0040000
        k(   41) = (   0.0000000   0.0000000   0.7000000), wk =   0.0120000
        k(   42) = (   0.0000000  -0.1000000   0.8000000), wk =   0.0480000
        k(   43) = (  -0.1000000   0.9000000  -0.1000000), wk =   0.0160000
        k(   44) = (   0.0000000   0.0000000   0.9000000), wk =   0.0120000

     Dense  grid:     1865 G-vectors     FFT dimensions: (  18,  18,  18)

     Estimated max dynamical RAM per process >       2.35 MB

     Initial potential from superposition of free atoms

     starting charge       0.9960, renormalised to       1.0000
     Starting wfcs are   16 randomized atomic wfcs

     total cpu time spent up to now is        0.1 secs

     Self-consistent Calculation

     iteration #  1     ecut=    20.00 Ry     beta= 0.70
     Davidson diagonalization with overlap
     ethr =  1.00E-02,  avg # of iterations =  4.7

     Threshold (ethr) on eigenvalues was too large:
     Diagonalizing with lowered threshold

     Davidson diagonalization with overlap
     ethr =  1.78E-05,  avg # of iterations =  4.0

     total cpu time spent up to now is        0.3 secs

     total energy              =      -0.69423146 Ry
     estimated scf accuracy    <       0.00017838 Ry

     iteration #  2     ecut=    20.00 Ry     beta= 0.70
     Davidson diagonalization with overlap
     ethr =  1.78E-05,  avg # of iterations =  1.0

     total cpu time spent up to now is        0.3 secs

     total energy              =      -0.69423140 Ry
     estimated scf accuracy    <       0.00001612 Ry

     iteration #  3     ecut=    20.00 Ry     beta= 0.70
     Davidson diagonalization with overlap
     ethr =  1.61E-06,  avg # of iterations =  1.1

     total cpu time spent up to now is        0.4 secs

     End of self-consistent calculation

          k = 0.0000 0.0000 0.1000 (   217 PWs)   bands (ev):

    -3.1039  13.4762  13.4762  13.7262  17.4381

          k = 0.0000-0.1000 0.2000 (   219 PWs)   bands (ev):

    -2.7324  11.4153  12.2476  13.2348  15.8221

          k = 0.0000-0.2000 0.3000 (   223 PWs)   bands (ev):

    -1.9921   8.4645  11.0321  12.4831  15.1414

          k = 0.0000-0.3000 0.4000 (   227 PWs)   bands (ev):

    -0.9088   5.7352  10.1666  11.8187  14.2012

          k = 0.0000-0.4000 0.5000 (   224 PWs)   bands (ev):

     0.3153   3.6628   9.7243  11.4534  13.7283

          k =-0.1000 0.1000 0.1000 (   222 PWs)   bands (ev):

    -2.9184  12.5359  12.9030  12.9030  16.7441

          k =-0.1000-0.1000 0.3000 (   220 PWs)   bands (ev):

    -2.1744   9.8070  10.2924  12.6017  14.9979

          k =-0.1000-0.2000 0.4000 (   223 PWs)   bands (ev):

    -1.2517   7.1239   9.1496  11.8880  14.9872

          k =-0.1000-0.3000 0.5000 (   225 PWs)   bands (ev):

    -0.0247   4.6783   8.5119  11.3487  15.0186

          k =-0.1000 0.6000-0.4000 (   221 PWs)   bands (ev):

     0.8994   3.3374   8.2988  11.1562  14.9575

          k =-0.2000 0.2000 0.1000 (   222 PWs)   bands (ev):

    -2.3624   9.9913  11.4435  11.7894  16.2529

          k =-0.2000-0.2000 0.5000 (   226 PWs)   bands (ev):

    -0.1535   5.5767   7.3501  11.4455  15.2327

          k =-0.2000 0.7000-0.4000 (   225 PWs)   bands (ev):

     1.1733   3.7390   6.6667  11.1702  15.6983

          k =-0.3000 0.3000 0.1000 (   229 PWs)   bands (ev):

    -1.4440   7.0657  10.5044  10.8049  15.5873

          k =-0.3000 0.2000 0.2000 (   222 PWs)   bands (ev):

    -1.6227   8.3484   9.2310  10.6148  17.0129

          k =-0.3000 0.7000-0.3000 (   225 PWs)   bands (ev):

     2.5473   2.5473   5.9192  11.1094  16.9326

          k =-0.4000 0.4000 0.1000 (   228 PWs)   bands (ev):

    -0.2296   4.5870   9.9159  10.1739  15.0484

          k =-0.4000 0.3000 0.2000 (   227 PWs)   bands (ev):

    -0.5299   5.8470   8.1831   9.9355  17.1086

          k = 0.5000-0.5000 0.1000 (   226 PWs)   bands (ev):

     0.6645   3.2653   9.7162   9.9590  14.8534

          k = 0.5000-0.6000 0.2000 (   223 PWs)   bands (ev):

     0.7509   3.7525   7.7334   9.5871  16.9746

          k = 0.5000-0.7000 0.3000 (   227 PWs)   bands (ev):

     0.7245   4.4325   6.5141   9.5164  18.3412

          k = 0.4000-0.6000 0.3000 (   220 PWs)   bands (ev):

     1.8471   3.1410   6.0621   9.3744  18.4883

          k = 0.0000 0.0000 0.3000 (   217 PWs)   bands (ev):

    -2.3577  10.8898  10.8898  12.7137  13.5938

          k = 0.0000-0.1000 0.4000 (   223 PWs)   bands (ev):

    -1.6105   8.5960   9.6179  12.1788  13.1023

          k = 0.0000-0.2000 0.5000 (   224 PWs)   bands (ev):

    -0.5120   5.9652   8.7275  11.5813  13.8569

          k = 0.0000-0.3000 0.6000 (   222 PWs)   bands (ev):

     0.7578   3.8773   8.2749  11.2596  14.8227

          k =-0.1000-0.1000 0.5000 (   224 PWs)   bands (ev):

    -0.6760   7.1038   8.0051  12.2053  12.3784

          k =-0.1000-0.2000 0.6000 (   223 PWs)   bands (ev):

     0.5839   4.9473   7.1992  11.7831  13.2737

          k =-0.1000 0.7000-0.3000 (   231 PWs)   bands (ev):

     1.6011   3.5647   6.9665  11.6147  14.1332

          k =-0.2000 0.8000-0.3000 (   229 PWs)   bands (ev):

     1.9639   3.7011   6.0652  12.3661  13.4689

          k =-0.3000 0.3000 0.3000 (   222 PWs)   bands (ev):

    -0.7022   7.2326   7.2326   9.1445  18.5369

          k = 0.6000-0.6000 0.3000 (   227 PWs)   bands (ev):

     0.5555   4.8599   6.5491   8.6279  19.2915

          k = 0.5000-0.5000 0.3000 (   228 PWs)   bands (ev):

     1.6127   3.4041   6.3197   8.4728  19.4749

          k = 0.5000-0.6000 0.4000 (   228 PWs)   bands (ev):

     1.9564   3.7367   5.1868   8.2305  20.5464

          k = 0.0000 0.0000 0.5000 (   233 PWs)   bands (ev):

    -0.8493   8.3228   8.3228  10.7080  11.9882

          k = 0.0000-0.1000 0.6000 (   228 PWs)   bands (ev):

     0.2766   6.3976   7.4226  10.4640  12.0443

          k = 0.0000-0.2000 0.7000 (   225 PWs)   bands (ev):

     1.6297   4.3429   6.9662  10.5773  12.9960

          k =-0.1000-0.1000 0.7000 (   227 PWs)   bands (ev):

     1.5748   5.2502   6.3541  10.5197  11.9630

          k =-0.1000 0.8000-0.2000 (   226 PWs)   bands (ev):

     2.7586   3.9431   6.0115  10.9227  12.5513

          k = 0.5000-0.5000 0.5000 (   216 PWs)   bands (ev):

     3.5040   3.5040   3.5040   7.8862  22.4729

          k = 0.0000 0.0000 0.7000 (   229 PWs)   bands (ev):

     1.4408   6.5176   6.5176   8.7837  11.5185

          k = 0.0000-0.1000 0.8000 (   230 PWs)   bands (ev):

     2.8923   5.0722   6.0593   9.0687  11.0387

          k =-0.1000 0.9000-0.1000 (   236 PWs)   bands (ev):

     4.3153   4.3153   5.5829   9.5790   9.5790

          k = 0.0000 0.0000 0.9000 (   236 PWs)   bands (ev):

     4.4183   5.6002   5.6002   7.8215   8.9121

     the Fermi energy is     0.3366 ev

!    total energy              =      -0.69423150 Ry
     estimated scf accuracy    <          1.4E-09 Ry
     smearing contrib. (-TS)   =      -0.00004439 Ry
     internal energy E=F+TS    =      -0.69418712 Ry

     The total energy is F=E-TS. E is the sum of the following terms:
     one-electron contribution =       0.38758071 Ry
     hartree contribution      =       0.00090424 Ry
     xc contribution           =      -0.53787662 Ry
     ewald contribution        =      -0.54479545 Ry

     convergence has been achieved in   3 iterations

     Forces acting on atoms (cartesian axes, Ry/au):

     atom    1 type  1   force =     0.00000000    0.00000000    0.00000000

     Total force =     0.000000     Total SCF correction =     0.000000


     Computing stress (Cartesian axis) and pressure

          total   stress  (Ry/bohr**3)                   (kbar)     P=      -12.96
  -0.00008809  -0.00000000   0.00000000          -12.96       -0.00        0.00
  -0.00000000  -0.00008809  -0.00000000           -0.00      -12.96       -0.00
   0.00000000  -0.00000000  -0.00008809            0.00       -0.00      -12.96


     Writing all to output data dir ./QE-outdir/li.save/ :
     XML data file, charge density, pseudopotentials, collected wavefunctions

     init_run     :      0.06s CPU      0.08s WALL (       1 calls)
     electrons    :      0.22s CPU      0.31s WALL (       1 calls)
     forces       :      0.00s CPU      0.00s WALL (       1 calls)
     stress       :      0.03s CPU      0.03s WALL (       1 calls)

     Called by init_run:
     wfcinit      :      0.05s CPU      0.07s WALL (       1 calls)
     potinit      :      0.00s CPU      0.00s WALL (       1 calls)
     hinit0       :      0.01s CPU      0.01s WALL (       1 calls)

     Called by electrons:
     c_bands      :      0.19s CPU      0.28s WALL (       4 calls)
     sum_band     :      0.03s CPU      0.03s WALL (       4 calls)
     v_of_rho     :      0.00s CPU      0.00s WALL (       4 calls)
     mix_rho      :      0.00s CPU      0.00s WALL (       4 calls)

     Called by c_bands:
     init_us_2    :      0.01s CPU      0.01s WALL (     484 calls)
     cegterg      :      0.19s CPU      0.27s WALL (     176 calls)

     Called by *egterg:
     cdiaghg      :      0.07s CPU      0.17s WALL (     608 calls)
     h_psi        :      0.15s CPU      0.15s WALL (     696 calls)
     g_psi        :      0.00s CPU      0.00s WALL (     476 calls)

     Called by h_psi:
     h_psi:calbec :      0.00s CPU      0.00s WALL (     696 calls)
     vloc_psi     :      0.14s CPU      0.14s WALL (     696 calls)
                                        0.00s GPU  (     696 calls)
     add_vuspsi   :      0.00s CPU      0.00s WALL (     696 calls)

     General routines
     calbec       :      0.01s CPU      0.01s WALL (    1444 calls)
     fft          :      0.00s CPU      0.00s WALL (      65 calls)
     ffts         :      0.00s CPU      0.00s WALL (       4 calls)
     fftw         :      0.15s CPU      0.15s WALL (    7350 calls)

     Parallel routines

     PWSCF        :      0.33s CPU      0.44s WALL


   This run was terminated on:  23:33:25  31Jan2026            

=------------------------------------------------------------------------------=
   JOB DONE.
=------------------------------------------------------------------------------=
