
     Program PWSCF v.7.5 starts on 31Jan2026 at 23:33:23 

     This program is part of the open-source Quantum ESPRESSO suite
     for quantum simulation of materials; please cite
         "P. Giannozzi et al., J. Phys.:Condens. Matter 21 395502 (2009);
         "P. Giannozzi et al., J. Phys.:Condens. Matter 29 465901 (2017);
         "P. Giannozzi et al., J. Chem. Phys. 152 154105 (2020);
          URL http://www.quantum-espresso.org", 
     in publications or presentations arising from this work. More details at
     http://www.quantum-espresso.org/quote

     Parallel version (MPI), running on     1 processors

     MPI processes distributed on     1 nodes
     0 MiB available memory on the printing compute node when the environment starts

     Waiting for input...
     Reading input from standard input
     Message from routine read_cards :
     DEPRECATED: no units specified in ATOMIC_POSITIONS card
     Message from routine read_cards :
     ATOMIC_POSITIONS: units set to alat

     Current dimensions of program PWSCF are:
     Max number of different atomic species (ntypx) = 10
     Max number of k-points (npk) =  40000
     Max angular momentum in pseudopotentials (lmaxx) =  4
     file Li.pbe-mt_fhi.UPF: wavefunction(s)  2p 4f renormalized

     Subspace diagonalization in iterative solution of the eigenvalue problem:
     a serial algorithm will be used


     G-vector sticks info
     --------------------
     sticks:   dense  smooth     PW     G-vecs:    dense   smooth      PW
     Sum         201     201     67                 1745     1745     369

     Using Slab Decomposition



     bravais-lattice index     =            3
     lattice parameter (alat)  =       6.6400  a.u.
     unit-cell volume          =     146.3775 (a.u.)^3
     number of atoms/cell      =            1
     number of atomic types    =            1
     number of electrons       =         1.00
     number of Kohn-Sham states=            5
     kinetic-energy cutoff     =      20.0000  Ry
     charge density cutoff     =      80.0000  Ry
     scf convergence threshold =      1.0E-08
     mixing beta               =       0.7000
     number of iterations used =            8  plain     mixing
     Exchange-correlation= PBE
                           (   1   4   3   4   0   0   0)

     celldm(1)=   6.640000  celldm(2)=   0.000000  celldm(3)=   0.000000
     celldm(4)=   0.000000  celldm(5)=   0.000000  celldm(6)=   0.000000

     crystal axes: (cart. coord. in units of alat)
               a(1) = (   0.500000   0.500000   0.500000 )  
               a(2) = (  -0.500000   0.500000   0.500000 )  
               a(3) = (  -0.500000  -0.500000   0.500000 )  

     reciprocal axes: (cart. coord. in units 2 pi/alat)
               b(1) = (  1.000000  0.000000  1.000000 )  
               b(2) = ( -1.000000  1.000000  0.000000 )  
               b(3) = (  0.000000 -1.000000  1.000000 )  


     PseudoPot. # 1 for Li read from file:
     ./pseudopot/Li.pbe-mt_fhi.UPF
     MD5 check sum: 3419f5616d131090147e867976aae79b
     Pseudo is Norm-conserving + core correction, Zval =  1.0
     Generated using FHI98PP, converted with fhi2upf.x v.5.0.2
     Using radial grid of  433 points,  3 beta functions with: 
                l(1) =   0
                l(2) =   1
                l(3) =   3

     atomic species   valence    mass     pseudopotential
     Li                1.00     6.94000     Li( 1.00)

     48 Sym. Ops., with inversion, found



   Cartesian axes

     site n.     atom                  positions (alat units)
         1        Li     tau(   1) = (   0.0000000   0.0000000   0.0000000  )

     number of k points=    44  Methfessel-Paxton smearing, width (Ry)=  0.0100
                       cart. coord. in units 2pi/alat
        k(    1) = (   0.0000000   0.0000000   0.1000000), wk =   0.0120000
        k(    2) = (   0.0000000  -0.1000000   0.2000000), wk =   0.0480000
        k(    3) = (   0.0000000  -0.2000000   0.3000000), wk =   0.0480000
        k(    4) = (   0.0000000  -0.3000000   0.4000000), wk =   0.0480000
        k(    5) = (   0.0000000  -0.4000000   0.5000000), wk =   0.0480000
        k(    6) = (  -0.1000000   0.1000000   0.1000000), wk =   0.0160000
        k(    7) = (  -0.1000000  -0.1000000   0.3000000), wk =   0.0480000
        k(    8) = (  -0.1000000  -0.2000000   0.4000000), wk =   0.0960000
        k(    9) = (  -0.1000000  -0.3000000   0.5000000), wk =   0.0960000
        k(   10) = (  -0.1000000   0.6000000  -0.4000000), wk =   0.0480000
        k(   11) = (  -0.2000000   0.2000000   0.1000000), wk =   0.0480000
        k(   12) = (  -0.2000000  -0.2000000   0.5000000), wk =   0.0480000
        k(   13) = (  -0.2000000   0.7000000  -0.4000000), wk =   0.0960000
        k(   14) = (  -0.3000000   0.3000000   0.1000000), wk =   0.0480000
        k(   15) = (  -0.3000000   0.2000000   0.2000000), wk =   0.0480000
        k(   16) = (  -0.3000000   0.7000000  -0.3000000), wk =   0.0160000
        k(   17) = (  -0.4000000   0.4000000   0.1000000), wk =   0.0480000
        k(   18) = (  -0.4000000   0.3000000   0.2000000), wk =   0.0960000
        k(   19) = (   0.5000000  -0.5000000   0.1000000), wk =   0.0240000
        k(   20) = (   0.5000000  -0.6000000   0.2000000), wk =   0.0960000
        k(   21) = (   0.5000000  -0.7000000   0.3000000), wk =   0.0480000
        k(   22) = (   0.4000000  -0.6000000   0.3000000), wk =   0.0480000
        k(   23) = (   0.0000000   0.0000000   0.3000000), wk =   0.0120000
        k(   24) = (   0.0000000  -0.1000000   0.4000000), wk =   0.0480000
        k(   25) = (   0.0000000  -0.2000000   0.5000000), wk =   0.0480000
        k(   26) = (   0.0000000  -0.3000000   0.6000000), wk =   0.0480000
        k(   27) = (  -0.1000000  -0.1000000   0.5000000), wk =   0.0480000
        k(   28) = (  -0.1000000  -0.2000000   0.6000000), wk =   0.0960000
        k(   29) = (  -0.1000000   0.7000000  -0.3000000), wk =   0.0480000
        k(   30) = (  -0.2000000   0.8000000  -0.3000000), wk =   0.0480000
        k(   31) = (  -0.3000000   0.3000000   0.3000000), wk =   0.0160000
        k(   32) = (   0.6000000  -0.6000000   0.3000000), wk =   0.0480000
        k(   33) = (   0.5000000  -0.5000000   0.3000000), wk =   0.0240000
        k(   34) = (   0.5000000  -0.6000000   0.4000000), wk =   0.0480000
        k(   35) = (   0.0000000   0.0000000   0.5000000), wk =   0.0120000
        k(   36) = (   0.0000000  -0.1000000   0.6000000), wk =   0.0480000
        k(   37) = (   0.0000000  -0.2000000   0.7000000), wk =   0.0480000
        k(   38) = (  -0.1000000  -0.1000000   0.7000000), wk =   0.0480000
        k(   39) = (  -0.1000000   0.8000000  -0.2000000), wk =   0.0480000
        k(   40) = (   0.5000000  -0.5000000   0.5000000), wk =   0.0040000
        k(   41) = (   0.0000000   0.0000000   0.7000000), wk =   0.0120000
        k(   42) = (   0.0000000  -0.1000000   0.8000000), wk =   0.0480000
        k(   43) = (  -0.1000000   0.9000000  -0.1000000), wk =   0.0160000
        k(   44) = (   0.0000000   0.0000000   0.9000000), wk =   0.0120000

     Dense  grid:     1745 G-vectors     FFT dimensions: (  18,  18,  18)

     Estimated max dynamical RAM per process >       2.28 MB

     Initial potential from superposition of free atoms

     starting charge       0.9960, renormalised to       1.0000
     Starting wfcs are   16 randomized atomic wfcs

     total cpu time spent up to now is        0.1 secs

     Self-consistent Calculation

     iteration #  1     ecut=    20.00 Ry     beta= 0.70
     Davidson diagonalization with overlap
     ethr =  1.00E-02,  avg # of iterations =  4.7

     Threshold (ethr) on eigenvalues was too large:
     Diagonalizing with lowered threshold

     Davidson diagonalization with overlap
     ethr =  1.83E-05,  avg # of iterations =  3.9

     total cpu time spent up to now is        0.3 secs

     total energy              =      -0.69444477 Ry
     estimated scf accuracy    <       0.00018193 Ry

     iteration #  2     ecut=    20.00 Ry     beta= 0.70
     Davidson diagonalization with overlap
     ethr =  1.82E-05,  avg # of iterations =  1.0

     total cpu time spent up to now is        0.3 secs

     total energy              =      -0.69444449 Ry
     estimated scf accuracy    <       0.00001642 Ry

     iteration #  3     ecut=    20.00 Ry     beta= 0.70
     Davidson diagonalization with overlap
     ethr =  1.64E-06,  avg # of iterations =  1.3

     total cpu time spent up to now is        0.4 secs

     End of self-consistent calculation

          k = 0.0000 0.0000 0.1000 (   213 PWs)   bands (ev):

    -3.0843  13.6879  13.6879  13.9431  17.6767

          k = 0.0000-0.1000 0.2000 (   217 PWs)   bands (ev):

    -2.7101  11.5985  12.4408  13.4432  16.0467

          k = 0.0000-0.2000 0.3000 (   217 PWs)   bands (ev):

    -1.9643   8.6113  11.2092  12.6799  15.3568

          k = 0.0000-0.3000 0.4000 (   221 PWs)   bands (ev):

    -0.8733   5.8524  10.3328  12.0053  14.4051

          k = 0.0000-0.4000 0.5000 (   220 PWs)   bands (ev):

     0.3565   3.7631   9.8847  11.6346  13.9265

          k =-0.1000 0.1000 0.1000 (   213 PWs)   bands (ev):

    -2.8975  12.7390  13.1040  13.1040  16.9824

          k =-0.1000-0.1000 0.3000 (   217 PWs)   bands (ev):

    -2.1479   9.9637  10.4661  12.8009  15.2128

          k =-0.1000-0.2000 0.4000 (   220 PWs)   bands (ev):

    -1.2182   7.2516   9.3079  12.0757  15.2053

          k =-0.1000-0.3000 0.5000 (   219 PWs)   bands (ev):

     0.0172   4.7821   8.6624  11.5286  15.2426

          k =-0.1000 0.6000-0.4000 (   221 PWs)   bands (ev):

     0.9439   3.4331   8.4463  11.3329  15.1821

          k =-0.2000 0.2000 0.1000 (   218 PWs)   bands (ev):

    -2.3374  10.1550  11.6306  11.9720  16.4879

          k =-0.2000-0.2000 0.5000 (   222 PWs)   bands (ev):

    -0.1113   5.6789   7.4980  11.6269  15.4511

          k =-0.2000 0.7000-0.4000 (   223 PWs)   bands (ev):

     1.2246   3.8243   6.8079  11.3478  15.9268

          k =-0.3000 0.3000 0.1000 (   220 PWs)   bands (ev):

    -1.4122   7.1957  10.6814  10.9739  15.8129

          k =-0.3000 0.2000 0.2000 (   216 PWs)   bands (ev):

    -1.5921   8.4852   9.3919  10.7915  17.2635

          k =-0.3000 0.7000-0.3000 (   225 PWs)   bands (ev):

     2.6120   2.6120   6.0610  11.2868  17.1716

          k =-0.4000 0.4000 0.1000 (   222 PWs)   bands (ev):

    -0.1898   4.6923  10.0857  10.3341  15.2662

          k =-0.4000 0.3000 0.2000 (   222 PWs)   bands (ev):

    -0.4911   5.9579   8.3291  10.1064  17.3598

          k = 0.5000-0.5000 0.1000 (   222 PWs)   bands (ev):

     0.7061   3.3630   9.8834  10.1164  15.0685

          k = 0.5000-0.6000 0.2000 (   220 PWs)   bands (ev):

     0.7972   3.8458   7.8729   9.7553  17.2235

          k = 0.5000-0.7000 0.3000 (   217 PWs)   bands (ev):

     0.7734   4.5205   6.6494   9.6868  18.6113

          k = 0.4000-0.6000 0.3000 (   216 PWs)   bands (ev):

     1.9032   3.2173   6.1936   9.5437  18.7591

          k = 0.0000 0.0000 0.3000 (   213 PWs)   bands (ev):

    -2.3325  11.0634  11.0634  12.9250  13.7862

          k = 0.0000-0.1000 0.4000 (   219 PWs)   bands (ev):

    -1.5795   8.7417   9.7749  12.3791  13.2970

          k = 0.0000-0.2000 0.5000 (   223 PWs)   bands (ev):

    -0.4725   6.0816   8.8731  11.7739  14.0625

          k = 0.0000-0.3000 0.6000 (   222 PWs)   bands (ev):

     0.8043   3.9759   8.4148  11.4489  15.0419

          k =-0.1000-0.1000 0.5000 (   224 PWs)   bands (ev):

    -0.6374   7.2258   8.1499  12.4110  12.5598

          k =-0.1000-0.2000 0.6000 (   221 PWs)   bands (ev):

     0.6323   5.0477   7.3354  11.9765  13.4723

          k =-0.1000 0.7000-0.3000 (   222 PWs)   bands (ev):

     1.6544   3.6560   7.1000  11.8067  14.3432

          k =-0.2000 0.8000-0.3000 (   221 PWs)   bands (ev):

     2.0241   3.7804   6.2009  12.5692  13.6648

          k =-0.3000 0.3000 0.3000 (   222 PWs)   bands (ev):

    -0.6645   7.3551   7.3551   9.3245  18.8060

          k = 0.6000-0.6000 0.3000 (   222 PWs)   bands (ev):

     0.6030   4.9568   6.6631   8.8069  19.5704

          k = 0.5000-0.5000 0.3000 (   222 PWs)   bands (ev):

     1.6660   3.4899   6.4309   8.6513  19.7559

          k = 0.5000-0.6000 0.4000 (   224 PWs)   bands (ev):

     2.0161   3.8159   5.2893   8.4112  20.8454

          k = 0.0000 0.0000 0.5000 (   233 PWs)   bands (ev):

    -0.8117   8.4631   8.4631  10.8655  12.2029

          k = 0.0000-0.1000 0.6000 (   223 PWs)   bands (ev):

     0.3238   6.5151   7.5519  10.6256  12.2574

          k = 0.0000-0.2000 0.7000 (   223 PWs)   bands (ev):

     1.6869   4.4407   7.0896  10.7552  13.2058

          k =-0.1000-0.1000 0.7000 (   225 PWs)   bands (ev):

     1.6338   5.3492   6.4781  10.6782  12.1761

          k =-0.1000 0.8000-0.2000 (   226 PWs)   bands (ev):

     2.8261   4.0304   6.1333  11.0943  12.7355

          k = 0.5000-0.5000 0.5000 (   216 PWs)   bands (ev):

     3.5803   3.5803   3.5803   8.0725  22.7954

          k = 0.0000 0.0000 0.7000 (   229 PWs)   bands (ev):

     1.4995   6.6351   6.6351   8.9180  11.7321

          k = 0.0000-0.1000 0.8000 (   228 PWs)   bands (ev):

     2.9647   5.1732   6.1711   9.2111  11.2162

          k =-0.1000 0.9000-0.1000 (   230 PWs)   bands (ev):

     4.4027   4.4027   5.6957   9.7261   9.7261

          k = 0.0000 0.0000 0.9000 (   236 PWs)   bands (ev):

     4.5089   5.7063   5.7063   7.9441   9.0519

     the Fermi energy is     0.3801 ev

!    total energy              =      -0.69444459 Ry
     estimated scf accuracy    <          1.2E-09 Ry
     smearing contrib. (-TS)   =      -0.00005043 Ry
     internal energy E=F+TS    =      -0.69439416 Ry

     The total energy is F=E-TS. E is the sum of the following terms:
     one-electron contribution =       0.39278013 Ry
     hartree contribution      =       0.00093333 Ry
     xc contribution           =      -0.54003024 Ry
     ewald contribution        =      -0.54807737 Ry

     convergence has been achieved in   3 iterations

     Forces acting on atoms (cartesian axes, Ry/au):

     atom    1 type  1   force =     0.00000000    0.00000000    0.00000000

     Total force =     0.000000     Total SCF correction =     0.000000


     Computing stress (Cartesian axis) and pressure

          total   stress  (Ry/bohr**3)                   (kbar)     P=      -11.26
  -0.00007657  -0.00000000   0.00000000          -11.26       -0.00        0.00
  -0.00000000  -0.00007657  -0.00000000           -0.00      -11.26       -0.00
   0.00000000  -0.00000000  -0.00007657            0.00       -0.00      -11.26


     Writing all to output data dir ./QE-outdir/li.save/ :
     XML data file, charge density, pseudopotentials, collected wavefunctions

     init_run     :      0.06s CPU      0.08s WALL (       1 calls)
     electrons    :      0.22s CPU      0.31s WALL (       1 calls)
     forces       :      0.00s CPU      0.00s WALL (       1 calls)
     stress       :      0.03s CPU      0.03s WALL (       1 calls)

     Called by init_run:
     wfcinit      :      0.05s CPU      0.07s WALL (       1 calls)
     potinit      :      0.00s CPU      0.00s WALL (       1 calls)
     hinit0       :      0.01s CPU      0.01s WALL (       1 calls)

     Called by electrons:
     c_bands      :      0.19s CPU      0.28s WALL (       4 calls)
     sum_band     :      0.03s CPU      0.03s WALL (       4 calls)
     v_of_rho     :      0.00s CPU      0.00s WALL (       4 calls)
     mix_rho      :      0.00s CPU      0.00s WALL (       4 calls)

     Called by c_bands:
     init_us_2    :      0.01s CPU      0.01s WALL (     484 calls)
     cegterg      :      0.18s CPU      0.28s WALL (     176 calls)

     Called by *egterg:
     cdiaghg      :      0.07s CPU      0.17s WALL (     611 calls)
     h_psi        :      0.15s CPU      0.15s WALL (     699 calls)
     g_psi        :      0.00s CPU      0.00s WALL (     479 calls)

     Called by h_psi:
     h_psi:calbec :      0.00s CPU      0.00s WALL (     699 calls)
     vloc_psi     :      0.14s CPU      0.14s WALL (     699 calls)
                                        0.00s GPU  (     699 calls)
     add_vuspsi   :      0.00s CPU      0.00s WALL (     699 calls)

     General routines
     calbec       :      0.01s CPU      0.01s WALL (    1447 calls)
     fft          :      0.00s CPU      0.00s WALL (      65 calls)
     ffts         :      0.00s CPU      0.00s WALL (       4 calls)
     fftw         :      0.15s CPU      0.15s WALL (    7342 calls)

     Parallel routines

     PWSCF        :      0.32s CPU      0.44s WALL


   This run was terminated on:  23:33:24  31Jan2026            

=------------------------------------------------------------------------------=
   JOB DONE.
=------------------------------------------------------------------------------=
