
     Program PWSCF v.7.5 starts on 26Jan2026 at 14: 5: 4 

     This program is part of the open-source Quantum ESPRESSO suite
     for quantum simulation of materials; please cite
         "P. Giannozzi et al., J. Phys.:Condens. Matter 21 395502 (2009);
         "P. Giannozzi et al., J. Phys.:Condens. Matter 29 465901 (2017);
         "P. Giannozzi et al., J. Chem. Phys. 152 154105 (2020);
          URL http://www.quantum-espresso.org", 
     in publications or presentations arising from this work. More details at
     http://www.quantum-espresso.org/quote

     Parallel version (MPI), running on     1 processors

     MPI processes distributed on     1 nodes
     0 MiB available memory on the printing compute node when the environment starts

     Waiting for input...
     Reading input from standard input
     Message from routine read_cards :
     DEPRECATED: no units specified in ATOMIC_POSITIONS card
     Message from routine read_cards :
     ATOMIC_POSITIONS: units set to alat

     Current dimensions of program PWSCF are:
     Max number of different atomic species (ntypx) = 10
     Max number of k-points (npk) =  40000
     Max angular momentum in pseudopotentials (lmaxx) =  4
     file Li.pbe-mt_fhi.UPF: wavefunction(s)  2p 4f renormalized

     Subspace diagonalization in iterative solution of the eigenvalue problem:
     a serial algorithm will be used


     G-vector sticks info
     --------------------
     sticks:   dense  smooth     PW     G-vecs:    dense   smooth      PW
     Sum         181     181     67                 1601     1601     369

     Using Slab Decomposition



     bravais-lattice index     =            3
     lattice parameter (alat)  =       6.5000  a.u.
     unit-cell volume          =     137.3125 (a.u.)^3
     number of atoms/cell      =            1
     number of atomic types    =            1
     number of electrons       =         1.00
     number of Kohn-Sham states=            5
     kinetic-energy cutoff     =      20.0000  Ry
     charge density cutoff     =      80.0000  Ry
     scf convergence threshold =      1.0E-08
     mixing beta               =       0.7000
     number of iterations used =            8  plain     mixing
     Exchange-correlation= PBE
                           (   1   4   3   4   0   0   0)

     celldm(1)=   6.500000  celldm(2)=   0.000000  celldm(3)=   0.000000
     celldm(4)=   0.000000  celldm(5)=   0.000000  celldm(6)=   0.000000

     crystal axes: (cart. coord. in units of alat)
               a(1) = (   0.500000   0.500000   0.500000 )  
               a(2) = (  -0.500000   0.500000   0.500000 )  
               a(3) = (  -0.500000  -0.500000   0.500000 )  

     reciprocal axes: (cart. coord. in units 2 pi/alat)
               b(1) = (  1.000000  0.000000  1.000000 )  
               b(2) = ( -1.000000  1.000000  0.000000 )  
               b(3) = (  0.000000 -1.000000  1.000000 )  


     PseudoPot. # 1 for Li read from file:
     ./pseudopot/Li.pbe-mt_fhi.UPF
     MD5 check sum: 3419f5616d131090147e867976aae79b
     Pseudo is Norm-conserving + core correction, Zval =  1.0
     Generated using FHI98PP, converted with fhi2upf.x v.5.0.2
     Using radial grid of  433 points,  3 beta functions with: 
                l(1) =   0
                l(2) =   1
                l(3) =   3

     atomic species   valence    mass     pseudopotential
     Li                1.00     6.94000     Li( 1.00)

     48 Sym. Ops., with inversion, found



   Cartesian axes

     site n.     atom                  positions (alat units)
         1        Li     tau(   1) = (   0.0000000   0.0000000   0.0000000  )

     number of k points=    44  Methfessel-Paxton smearing, width (Ry)=  0.0100
                       cart. coord. in units 2pi/alat
        k(    1) = (   0.0000000   0.0000000   0.1000000), wk =   0.0120000
        k(    2) = (   0.0000000  -0.1000000   0.2000000), wk =   0.0480000
        k(    3) = (   0.0000000  -0.2000000   0.3000000), wk =   0.0480000
        k(    4) = (   0.0000000  -0.3000000   0.4000000), wk =   0.0480000
        k(    5) = (   0.0000000  -0.4000000   0.5000000), wk =   0.0480000
        k(    6) = (  -0.1000000   0.1000000   0.1000000), wk =   0.0160000
        k(    7) = (  -0.1000000  -0.1000000   0.3000000), wk =   0.0480000
        k(    8) = (  -0.1000000  -0.2000000   0.4000000), wk =   0.0960000
        k(    9) = (  -0.1000000  -0.3000000   0.5000000), wk =   0.0960000
        k(   10) = (  -0.1000000   0.6000000  -0.4000000), wk =   0.0480000
        k(   11) = (  -0.2000000   0.2000000   0.1000000), wk =   0.0480000
        k(   12) = (  -0.2000000  -0.2000000   0.5000000), wk =   0.0480000
        k(   13) = (  -0.2000000   0.7000000  -0.4000000), wk =   0.0960000
        k(   14) = (  -0.3000000   0.3000000   0.1000000), wk =   0.0480000
        k(   15) = (  -0.3000000   0.2000000   0.2000000), wk =   0.0480000
        k(   16) = (  -0.3000000   0.7000000  -0.3000000), wk =   0.0160000
        k(   17) = (  -0.4000000   0.4000000   0.1000000), wk =   0.0480000
        k(   18) = (  -0.4000000   0.3000000   0.2000000), wk =   0.0960000
        k(   19) = (   0.5000000  -0.5000000   0.1000000), wk =   0.0240000
        k(   20) = (   0.5000000  -0.6000000   0.2000000), wk =   0.0960000
        k(   21) = (   0.5000000  -0.7000000   0.3000000), wk =   0.0480000
        k(   22) = (   0.4000000  -0.6000000   0.3000000), wk =   0.0480000
        k(   23) = (   0.0000000   0.0000000   0.3000000), wk =   0.0120000
        k(   24) = (   0.0000000  -0.1000000   0.4000000), wk =   0.0480000
        k(   25) = (   0.0000000  -0.2000000   0.5000000), wk =   0.0480000
        k(   26) = (   0.0000000  -0.3000000   0.6000000), wk =   0.0480000
        k(   27) = (  -0.1000000  -0.1000000   0.5000000), wk =   0.0480000
        k(   28) = (  -0.1000000  -0.2000000   0.6000000), wk =   0.0960000
        k(   29) = (  -0.1000000   0.7000000  -0.3000000), wk =   0.0480000
        k(   30) = (  -0.2000000   0.8000000  -0.3000000), wk =   0.0480000
        k(   31) = (  -0.3000000   0.3000000   0.3000000), wk =   0.0160000
        k(   32) = (   0.6000000  -0.6000000   0.3000000), wk =   0.0480000
        k(   33) = (   0.5000000  -0.5000000   0.3000000), wk =   0.0240000
        k(   34) = (   0.5000000  -0.6000000   0.4000000), wk =   0.0480000
        k(   35) = (   0.0000000   0.0000000   0.5000000), wk =   0.0120000
        k(   36) = (   0.0000000  -0.1000000   0.6000000), wk =   0.0480000
        k(   37) = (   0.0000000  -0.2000000   0.7000000), wk =   0.0480000
        k(   38) = (  -0.1000000  -0.1000000   0.7000000), wk =   0.0480000
        k(   39) = (  -0.1000000   0.8000000  -0.2000000), wk =   0.0480000
        k(   40) = (   0.5000000  -0.5000000   0.5000000), wk =   0.0040000
        k(   41) = (   0.0000000   0.0000000   0.7000000), wk =   0.0120000
        k(   42) = (   0.0000000  -0.1000000   0.8000000), wk =   0.0480000
        k(   43) = (  -0.1000000   0.9000000  -0.1000000), wk =   0.0160000
        k(   44) = (   0.0000000   0.0000000   0.9000000), wk =   0.0120000

     Dense  grid:     1601 G-vectors     FFT dimensions: (  15,  15,  15)

     Estimated max dynamical RAM per process >       2.00 MB

     Initial potential from superposition of free atoms

     starting charge       0.9960, renormalised to       1.0000
     Starting wfcs are   16 randomized atomic wfcs

     total cpu time spent up to now is        0.1 secs

     Self-consistent Calculation

     iteration #  1     ecut=    20.00 Ry     beta= 0.70
     Davidson diagonalization with overlap
     ethr =  1.00E-02,  avg # of iterations =  4.6

     Threshold (ethr) on eigenvalues was too large:
     Diagonalizing with lowered threshold

     Davidson diagonalization with overlap
     ethr =  2.00E-05,  avg # of iterations =  3.5

     total cpu time spent up to now is        0.2 secs

     total energy              =      -0.69491278 Ry
     estimated scf accuracy    <       0.00019873 Ry

     iteration #  2     ecut=    20.00 Ry     beta= 0.70
     Davidson diagonalization with overlap
     ethr =  1.99E-05,  avg # of iterations =  1.0

     total cpu time spent up to now is        0.2 secs

     total energy              =      -0.69491187 Ry
     estimated scf accuracy    <       0.00001774 Ry

     iteration #  3     ecut=    20.00 Ry     beta= 0.70
     Davidson diagonalization with overlap
     ethr =  1.77E-06,  avg # of iterations =  1.5

     total cpu time spent up to now is        0.3 secs

     End of self-consistent calculation

          k = 0.0000 0.0000 0.1000 (   201 PWs)   bands (ev):

    -3.0085  14.4602  14.4602  14.7357  18.5482

          k = 0.0000-0.1000 0.2000 (   205 PWs)   bands (ev):

    -2.6247  12.2656  13.1461  14.2055  16.8684

          k = 0.0000-0.2000 0.3000 (   206 PWs)   bands (ev):

    -1.8599   9.1464  11.8556  13.3964  16.1430

          k = 0.0000-0.3000 0.4000 (   199 PWs)   bands (ev):

    -0.7419   6.2812  10.9390  12.6861  15.1495

          k = 0.0000-0.4000 0.5000 (   199 PWs)   bands (ev):

     0.5074   4.1314  10.4699  12.2968  14.6500

          k =-0.1000 0.1000 0.1000 (   207 PWs)   bands (ev):

    -2.8171  13.4758  13.8351  13.8352  17.8508

          k =-0.1000-0.1000 0.3000 (   207 PWs)   bands (ev):

    -2.0479  10.5347  11.1004  13.5275  15.9971

          k =-0.1000-0.2000 0.4000 (   203 PWs)   bands (ev):

    -1.0936   7.7177   9.8868  12.7603  16.0012

          k =-0.1000-0.3000 0.5000 (   205 PWs)   bands (ev):

     0.1712   5.1616   9.2117  12.1843  16.0601

          k =-0.1000 0.6000-0.4000 (   208 PWs)   bands (ev):

     1.1068   3.7840   8.9861  11.9791  16.0013

          k =-0.2000 0.2000 0.1000 (   205 PWs)   bands (ev):

    -2.2426  10.7521  12.3148  12.6380  17.3451

          k =-0.2000-0.2000 0.5000 (   209 PWs)   bands (ev):

     0.0437   6.0525   8.0395  12.2881  16.2481

          k =-0.2000 0.7000-0.4000 (   209 PWs)   bands (ev):

     1.4124   4.1354   7.3260  11.9972  16.7602

          k =-0.3000 0.3000 0.1000 (   205 PWs)   bands (ev):

    -1.2938   7.6702  11.3264  11.5887  16.6347

          k =-0.3000 0.2000 0.2000 (   206 PWs)   bands (ev):

    -1.4780   8.9847   9.9780  11.4361  18.1761

          k =-0.3000 0.7000-0.3000 (   209 PWs)   bands (ev):

     2.8488   2.8488   6.5807  11.9356  18.0441

          k =-0.4000 0.4000 0.1000 (   203 PWs)   bands (ev):

    -0.0440   5.0782  10.7059  10.9184  16.0606

          k =-0.4000 0.3000 0.2000 (   205 PWs)   bands (ev):

    -0.3479   6.3631   8.8616  10.7328  18.2760

          k = 0.5000-0.5000 0.1000 (   204 PWs)   bands (ev):

     0.8586   3.7216  10.4953  10.6900  15.8533

          k = 0.5000-0.6000 0.2000 (   206 PWs)   bands (ev):

     0.9669   4.1868   8.3817  10.3715  18.1317

          k = 0.5000-0.7000 0.3000 (   210 PWs)   bands (ev):

     0.9519   4.8415   7.1432  10.3085  19.6553

          k = 0.4000-0.6000 0.3000 (   206 PWs)   bands (ev):

     2.1083   3.4961   6.6739  10.1647  19.7452

          k = 0.0000 0.0000 0.3000 (   209 PWs)   bands (ev):

    -2.2371  11.6970  11.6970  13.6949  14.4884

          k = 0.0000-0.1000 0.4000 (   208 PWs)   bands (ev):

    -1.4635   9.2722  10.3482  13.1078  14.0095

          k = 0.0000-0.2000 0.5000 (   208 PWs)   bands (ev):

    -0.3270   6.5076   9.4055  12.4778  14.8141

          k = 0.0000-0.3000 0.6000 (   209 PWs)   bands (ev):

     0.9748   4.3372   8.9264  12.1410  15.8439

          k =-0.1000-0.1000 0.5000 (   204 PWs)   bands (ev):

    -0.4943   7.6717   8.6800  13.1636  13.2221

          k =-0.1000-0.2000 0.6000 (   209 PWs)   bands (ev):

     0.8101   5.4143   7.8335  12.6821  14.1977

          k =-0.1000 0.7000-0.3000 (   212 PWs)   bands (ev):

     1.8490   3.9896   7.5874  12.5059  15.1086

          k =-0.2000 0.8000-0.3000 (   211 PWs)   bands (ev):

     2.2439   4.0695   6.6971  13.3076  14.3793

          k =-0.3000 0.3000 0.3000 (   198 PWs)   bands (ev):

    -0.5250   7.8028   7.8028   9.9848  19.7907

          k = 0.6000-0.6000 0.3000 (   202 PWs)   bands (ev):

     0.7772   5.3106   7.0798   9.4631  20.5905

          k = 0.5000-0.5000 0.3000 (   210 PWs)   bands (ev):

     1.8605   3.8033   6.8367   9.3060  20.7787

          k = 0.5000-0.6000 0.4000 (   206 PWs)   bands (ev):

     2.2342   4.1057   5.6629   9.0759  21.9365

          k = 0.0000 0.0000 0.5000 (   209 PWs)   bands (ev):

    -0.6722   8.9758   8.9758  11.4405  12.9887

          k = 0.0000-0.1000 0.6000 (   212 PWs)   bands (ev):

     0.4977   6.9439   8.0226  11.2142  13.0371

          k = 0.0000-0.2000 0.7000 (   212 PWs)   bands (ev):

     1.8960   4.7984   7.5392  11.4031  13.9732

          k =-0.1000-0.1000 0.7000 (   214 PWs)   bands (ev):

     1.8495   5.7109   6.9310  11.2571  12.9538

          k =-0.1000 0.8000-0.2000 (   211 PWs)   bands (ev):

     3.0732   4.3492   6.5789  11.7195  13.4086

          k = 0.5000-0.5000 0.5000 (   216 PWs)   bands (ev):

     3.8591   3.8591   3.8591   8.7565  23.9729

          k = 0.0000 0.0000 0.7000 (   212 PWs)   bands (ev):

     1.7149   7.0650   7.0650   9.4081  12.5111

          k = 0.0000-0.1000 0.8000 (   216 PWs)   bands (ev):

     3.2292   5.5422   6.5799   9.7307  11.8613

          k =-0.1000 0.9000-0.1000 (   218 PWs)   bands (ev):

     4.7224   4.7224   6.1061  10.2631  10.2632

          k = 0.0000 0.0000 0.9000 (   220 PWs)   bands (ev):

     4.8401   6.0942   6.0942   8.3919   9.5622

     the Fermi energy is     0.5404 ev

!    total energy              =      -0.69491196 Ry
     estimated scf accuracy    <          9.9E-10 Ry
     smearing contrib. (-TS)   =      -0.00006778 Ry
     internal energy E=F+TS    =      -0.69484418 Ry

     The total energy is F=E-TS. E is the sum of the following terms:
     one-electron contribution =       0.41180135 Ry
     hartree contribution      =       0.00103840 Ry
     xc contribution           =      -0.54780180 Ry
     ewald contribution        =      -0.55988212 Ry

     convergence has been achieved in   3 iterations

     Forces acting on atoms (cartesian axes, Ry/au):

     atom    1 type  1   force =     0.00000000    0.00000000    0.00000000

     Total force =     0.000000     Total SCF correction =     0.000000


     Computing stress (Cartesian axis) and pressure

          total   stress  (Ry/bohr**3)                   (kbar)     P=       -4.35
  -0.00002955   0.00000000  -0.00000000           -4.35        0.00       -0.00
   0.00000000  -0.00002955   0.00000000            0.00       -4.35        0.00
  -0.00000000   0.00000000  -0.00002955           -0.00        0.00       -4.35


     Writing all to output data dir ./QE-outdir/li.save/ :
     XML data file, charge density, pseudopotentials, collected wavefunctions

     init_run     :      0.04s CPU      0.06s WALL (       1 calls)
     electrons    :      0.13s CPU      0.22s WALL (       1 calls)
     forces       :      0.00s CPU      0.00s WALL (       1 calls)
     stress       :      0.02s CPU      0.02s WALL (       1 calls)

     Called by init_run:
     wfcinit      :      0.03s CPU      0.04s WALL (       1 calls)
     potinit      :      0.00s CPU      0.00s WALL (       1 calls)
     hinit0       :      0.01s CPU      0.01s WALL (       1 calls)

     Called by electrons:
     c_bands      :      0.12s CPU      0.20s WALL (       4 calls)
     sum_band     :      0.01s CPU      0.01s WALL (       4 calls)
     v_of_rho     :      0.00s CPU      0.00s WALL (       4 calls)
     mix_rho      :      0.00s CPU      0.00s WALL (       4 calls)

     Called by c_bands:
     init_us_2    :      0.01s CPU      0.01s WALL (     484 calls)
     cegterg      :      0.11s CPU      0.19s WALL (     176 calls)

     Called by *egterg:
     cdiaghg      :      0.07s CPU      0.16s WALL (     597 calls)
     h_psi        :      0.05s CPU      0.06s WALL (     685 calls)
     g_psi        :      0.00s CPU      0.00s WALL (     465 calls)

     Called by h_psi:
     h_psi:calbec :      0.00s CPU      0.00s WALL (     685 calls)
     vloc_psi     :      0.05s CPU      0.05s WALL (     685 calls)
                                        0.00s GPU  (     685 calls)
     add_vuspsi   :      0.00s CPU      0.00s WALL (     685 calls)

     General routines
     calbec       :      0.01s CPU      0.01s WALL (    1433 calls)
     fft          :      0.00s CPU      0.00s WALL (      65 calls)
     ffts         :      0.00s CPU      0.00s WALL (       4 calls)
     fftw         :      0.04s CPU      0.05s WALL (    7270 calls)

     Parallel routines

     PWSCF        :      0.20s CPU      0.31s WALL


   This run was terminated on:  14: 5: 4  26Jan2026            

=------------------------------------------------------------------------------=
   JOB DONE.
=------------------------------------------------------------------------------=
