
     Program PWSCF v.7.5 starts on 31Jan2026 at 23:33:15 

     This program is part of the open-source Quantum ESPRESSO suite
     for quantum simulation of materials; please cite
         "P. Giannozzi et al., J. Phys.:Condens. Matter 21 395502 (2009);
         "P. Giannozzi et al., J. Phys.:Condens. Matter 29 465901 (2017);
         "P. Giannozzi et al., J. Chem. Phys. 152 154105 (2020);
          URL http://www.quantum-espresso.org", 
     in publications or presentations arising from this work. More details at
     http://www.quantum-espresso.org/quote

     Parallel version (MPI), running on     1 processors

     MPI processes distributed on     1 nodes
     0 MiB available memory on the printing compute node when the environment starts

     Waiting for input...
     Reading input from standard input
     Message from routine read_cards :
     DEPRECATED: no units specified in ATOMIC_POSITIONS card
     Message from routine read_cards :
     ATOMIC_POSITIONS: units set to alat

     Current dimensions of program PWSCF are:
     Max number of different atomic species (ntypx) = 10
     Max number of k-points (npk) =  40000
     Max angular momentum in pseudopotentials (lmaxx) =  4
     file Li.pbe-mt_fhi.UPF: wavefunction(s)  2p 4f renormalized

     Subspace diagonalization in iterative solution of the eigenvalue problem:
     a serial algorithm will be used


     G-vector sticks info
     --------------------
     sticks:   dense  smooth     PW     G-vecs:    dense   smooth      PW
     Sum         169     169     63                 1409     1409     321

     Using Slab Decomposition



     bravais-lattice index     =            3
     lattice parameter (alat)  =       6.1200  a.u.
     unit-cell volume          =     114.6105 (a.u.)^3
     number of atoms/cell      =            1
     number of atomic types    =            1
     number of electrons       =         1.00
     number of Kohn-Sham states=            5
     kinetic-energy cutoff     =      20.0000  Ry
     charge density cutoff     =      80.0000  Ry
     scf convergence threshold =      1.0E-08
     mixing beta               =       0.7000
     number of iterations used =            8  plain     mixing
     Exchange-correlation= PBE
                           (   1   4   3   4   0   0   0)

     celldm(1)=   6.120000  celldm(2)=   0.000000  celldm(3)=   0.000000
     celldm(4)=   0.000000  celldm(5)=   0.000000  celldm(6)=   0.000000

     crystal axes: (cart. coord. in units of alat)
               a(1) = (   0.500000   0.500000   0.500000 )  
               a(2) = (  -0.500000   0.500000   0.500000 )  
               a(3) = (  -0.500000  -0.500000   0.500000 )  

     reciprocal axes: (cart. coord. in units 2 pi/alat)
               b(1) = (  1.000000  0.000000  1.000000 )  
               b(2) = ( -1.000000  1.000000  0.000000 )  
               b(3) = (  0.000000 -1.000000  1.000000 )  


     PseudoPot. # 1 for Li read from file:
     ./pseudopot/Li.pbe-mt_fhi.UPF
     MD5 check sum: 3419f5616d131090147e867976aae79b
     Pseudo is Norm-conserving + core correction, Zval =  1.0
     Generated using FHI98PP, converted with fhi2upf.x v.5.0.2
     Using radial grid of  433 points,  3 beta functions with: 
                l(1) =   0
                l(2) =   1
                l(3) =   3

     atomic species   valence    mass     pseudopotential
     Li                1.00     6.94000     Li( 1.00)

     48 Sym. Ops., with inversion, found



   Cartesian axes

     site n.     atom                  positions (alat units)
         1        Li     tau(   1) = (   0.0000000   0.0000000   0.0000000  )

     number of k points=    44  Methfessel-Paxton smearing, width (Ry)=  0.0100
                       cart. coord. in units 2pi/alat
        k(    1) = (   0.0000000   0.0000000   0.1000000), wk =   0.0120000
        k(    2) = (   0.0000000  -0.1000000   0.2000000), wk =   0.0480000
        k(    3) = (   0.0000000  -0.2000000   0.3000000), wk =   0.0480000
        k(    4) = (   0.0000000  -0.3000000   0.4000000), wk =   0.0480000
        k(    5) = (   0.0000000  -0.4000000   0.5000000), wk =   0.0480000
        k(    6) = (  -0.1000000   0.1000000   0.1000000), wk =   0.0160000
        k(    7) = (  -0.1000000  -0.1000000   0.3000000), wk =   0.0480000
        k(    8) = (  -0.1000000  -0.2000000   0.4000000), wk =   0.0960000
        k(    9) = (  -0.1000000  -0.3000000   0.5000000), wk =   0.0960000
        k(   10) = (  -0.1000000   0.6000000  -0.4000000), wk =   0.0480000
        k(   11) = (  -0.2000000   0.2000000   0.1000000), wk =   0.0480000
        k(   12) = (  -0.2000000  -0.2000000   0.5000000), wk =   0.0480000
        k(   13) = (  -0.2000000   0.7000000  -0.4000000), wk =   0.0960000
        k(   14) = (  -0.3000000   0.3000000   0.1000000), wk =   0.0480000
        k(   15) = (  -0.3000000   0.2000000   0.2000000), wk =   0.0480000
        k(   16) = (  -0.3000000   0.7000000  -0.3000000), wk =   0.0160000
        k(   17) = (  -0.4000000   0.4000000   0.1000000), wk =   0.0480000
        k(   18) = (  -0.4000000   0.3000000   0.2000000), wk =   0.0960000
        k(   19) = (   0.5000000  -0.5000000   0.1000000), wk =   0.0240000
        k(   20) = (   0.5000000  -0.6000000   0.2000000), wk =   0.0960000
        k(   21) = (   0.5000000  -0.7000000   0.3000000), wk =   0.0480000
        k(   22) = (   0.4000000  -0.6000000   0.3000000), wk =   0.0480000
        k(   23) = (   0.0000000   0.0000000   0.3000000), wk =   0.0120000
        k(   24) = (   0.0000000  -0.1000000   0.4000000), wk =   0.0480000
        k(   25) = (   0.0000000  -0.2000000   0.5000000), wk =   0.0480000
        k(   26) = (   0.0000000  -0.3000000   0.6000000), wk =   0.0480000
        k(   27) = (  -0.1000000  -0.1000000   0.5000000), wk =   0.0480000
        k(   28) = (  -0.1000000  -0.2000000   0.6000000), wk =   0.0960000
        k(   29) = (  -0.1000000   0.7000000  -0.3000000), wk =   0.0480000
        k(   30) = (  -0.2000000   0.8000000  -0.3000000), wk =   0.0480000
        k(   31) = (  -0.3000000   0.3000000   0.3000000), wk =   0.0160000
        k(   32) = (   0.6000000  -0.6000000   0.3000000), wk =   0.0480000
        k(   33) = (   0.5000000  -0.5000000   0.3000000), wk =   0.0240000
        k(   34) = (   0.5000000  -0.6000000   0.4000000), wk =   0.0480000
        k(   35) = (   0.0000000   0.0000000   0.5000000), wk =   0.0120000
        k(   36) = (   0.0000000  -0.1000000   0.6000000), wk =   0.0480000
        k(   37) = (   0.0000000  -0.2000000   0.7000000), wk =   0.0480000
        k(   38) = (  -0.1000000  -0.1000000   0.7000000), wk =   0.0480000
        k(   39) = (  -0.1000000   0.8000000  -0.2000000), wk =   0.0480000
        k(   40) = (   0.5000000  -0.5000000   0.5000000), wk =   0.0040000
        k(   41) = (   0.0000000   0.0000000   0.7000000), wk =   0.0120000
        k(   42) = (   0.0000000  -0.1000000   0.8000000), wk =   0.0480000
        k(   43) = (  -0.1000000   0.9000000  -0.1000000), wk =   0.0160000
        k(   44) = (   0.0000000   0.0000000   0.9000000), wk =   0.0120000

     Dense  grid:     1409 G-vectors     FFT dimensions: (  15,  15,  15)

     Estimated max dynamical RAM per process >       1.79 MB

     Initial potential from superposition of free atoms

     starting charge       0.9960, renormalised to       1.0000
     Starting wfcs are   16 randomized atomic wfcs

     total cpu time spent up to now is        0.1 secs

     Self-consistent Calculation

     iteration #  1     ecut=    20.00 Ry     beta= 0.70
     Davidson diagonalization with overlap
     ethr =  1.00E-02,  avg # of iterations =  4.5

     Threshold (ethr) on eigenvalues was too large:
     Diagonalizing with lowered threshold

     Davidson diagonalization with overlap
     ethr =  2.80E-05,  avg # of iterations =  3.5

     total cpu time spent up to now is        0.2 secs

     total energy              =      -0.69354067 Ry
     estimated scf accuracy    <       0.00028241 Ry

     iteration #  2     ecut=    20.00 Ry     beta= 0.70
     Davidson diagonalization with overlap
     ethr =  2.82E-05,  avg # of iterations =  1.0

     total cpu time spent up to now is        0.2 secs

     total energy              =      -0.69353807 Ry
     estimated scf accuracy    <       0.00002487 Ry

     iteration #  3     ecut=    20.00 Ry     beta= 0.70
     Davidson diagonalization with overlap
     ethr =  2.49E-06,  avg # of iterations =  1.5

     total cpu time spent up to now is        0.3 secs

     End of self-consistent calculation

          k = 0.0000 0.0000 0.1000 (   177 PWs)   bands (ev):

    -2.7343  16.8364  16.8364  17.1755  21.2282

          k = 0.0000-0.1000 0.2000 (   173 PWs)   bands (ev):

    -2.3258  14.3175  15.3186  16.5507  19.3967

          k = 0.0000-0.2000 0.3000 (   171 PWs)   bands (ev):

    -1.5107  10.7966  13.8451  15.6002  18.5593

          k = 0.0000-0.3000 0.4000 (   176 PWs)   bands (ev):

    -0.3223   7.6102  12.8011  14.7774  17.4374

          k = 0.0000-0.4000 0.5000 (   176 PWs)   bands (ev):

     0.9752   5.2849  12.2682  14.3292  16.8733

          k =-0.1000 0.1000 0.1000 (   177 PWs)   bands (ev):

    -2.5307  15.7491  16.0840  16.0840  20.5251

          k =-0.1000-0.1000 0.3000 (   172 PWs)   bands (ev):

    -1.7101  12.2919  13.0539  15.7638  18.4116

          k =-0.1000-0.2000 0.4000 (   173 PWs)   bands (ev):

    -0.6901   9.1509  11.6742  14.8654  18.4488

          k =-0.1000-0.3000 0.5000 (   174 PWs)   bands (ev):

     0.6534   6.3383  10.9096  14.1998  18.5717

          k =-0.1000 0.6000-0.4000 (   172 PWs)   bands (ev):

     1.6117   4.8768  10.6545  13.9635  18.5175

          k =-0.2000 0.2000 0.1000 (   173 PWs)   bands (ev):

    -1.9191  12.5874  14.4251  14.6850  19.9832

          k =-0.2000-0.2000 0.5000 (   175 PWs)   bands (ev):

     0.5321   7.2026   9.7181  14.3239  18.7009

          k =-0.2000 0.7000-0.4000 (   173 PWs)   bands (ev):

     1.9936   5.0937   8.9404  13.9941  19.3200

          k =-0.3000 0.3000 0.1000 (   172 PWs)   bands (ev):

    -0.9080   9.1333  13.3173  13.4789  19.1620

          k =-0.3000 0.2000 0.2000 (   175 PWs)   bands (ev):

    -1.1027  10.5219  11.7735  13.4369  20.9843

          k =-0.3000 0.7000-0.3000 (   167 PWs)   bands (ev):

     3.5801   3.5801   8.1999  13.9335  20.7280

          k =-0.4000 0.4000 0.1000 (   174 PWs)   bands (ev):

     0.4136   6.2787  12.6199  12.7124  18.5013

          k =-0.4000 0.3000 0.2000 (   174 PWs)   bands (ev):

     0.1059   7.6099  10.4963  12.6797  21.0895

          k = 0.5000-0.5000 0.1000 (   174 PWs)   bands (ev):

     1.3310   4.8431  12.3825  12.4521  18.2639

          k = 0.5000-0.6000 0.2000 (   170 PWs)   bands (ev):

     1.4926   5.2435   9.9451  12.2899  20.9183

          k = 0.5000-0.7000 0.3000 (   173 PWs)   bands (ev):

     1.5076   5.8313   8.6617  12.2509  22.5863

          k = 0.4000-0.6000 0.3000 (   167 PWs)   bands (ev):

     2.7428   4.3540   8.1534  12.1061  22.7682

          k = 0.0000 0.0000 0.3000 (   177 PWs)   bands (ev):

    -1.9110  13.6479  13.6479  16.0674  16.6486

          k = 0.0000-0.1000 0.4000 (   171 PWs)   bands (ev):

    -1.0818  10.9048  12.1125  15.3337  16.2260

          k = 0.0000-0.2000 0.5000 (   175 PWs)   bands (ev):

     0.1352   7.8228  11.0421  14.6447  17.1310

          k = 0.0000-0.3000 0.6000 (   173 PWs)   bands (ev):

     1.5031   5.4629  10.4993  14.2759  18.3143

          k =-0.1000-0.1000 0.5000 (   171 PWs)   bands (ev):

    -0.0376   9.0436  10.3115  15.2611  15.4822

          k =-0.1000-0.2000 0.6000 (   174 PWs)   bands (ev):

     1.3647   6.5437   9.3740  14.8484  16.4395

          k =-0.1000 0.7000-0.3000 (   170 PWs)   bands (ev):

     2.4509   5.0202   9.0972  14.6595  17.4691

          k =-0.2000 0.8000-0.3000 (   175 PWs)   bands (ev):

     2.9230   4.9612   8.2383  15.5797  16.5780

          k =-0.3000 0.3000 0.3000 (   171 PWs)   bands (ev):

    -0.0810   9.1798   9.1798  12.0328  22.8208

          k = 0.6000-0.6000 0.3000 (   173 PWs)   bands (ev):

     1.3200   6.3995   8.3598  11.5105  24.0316

          k = 0.5000-0.5000 0.3000 (   166 PWs)   bands (ev):

     2.4629   4.7701   8.0849  11.3527  23.9239

          k = 0.5000-0.6000 0.4000 (   169 PWs)   bands (ev):

     2.9084   4.9986   6.8082  11.1589  25.2872

          k = 0.0000 0.0000 0.5000 (   168 PWs)   bands (ev):

    -0.2244  10.5525  10.5525  13.2106  15.4116

          k = 0.0000-0.1000 0.6000 (   174 PWs)   bands (ev):

     1.0439   8.2638   9.4716  13.0195  15.4519

          k = 0.0000-0.2000 0.7000 (   173 PWs)   bands (ev):

     2.5430   5.9046   8.9245  13.3876  16.3449

          k =-0.1000-0.1000 0.7000 (   177 PWs)   bands (ev):

     2.5189   6.8246   8.3276  13.0393  15.3402

          k =-0.1000 0.8000-0.2000 (   177 PWs)   bands (ev):

     3.8356   5.3295   7.9562  13.6336  16.5928

          k = 0.5000-0.5000 0.5000 (   180 PWs)   bands (ev):

     4.7197   4.7197   4.7197  10.8990  27.6141

          k = 0.0000 0.0000 0.7000 (   180 PWs)   bands (ev):

     2.3848   8.3860   8.3860  10.9179  14.8929

          k = 0.0000-0.1000 0.8000 (   176 PWs)   bands (ev):

     4.0462   6.6793   7.8373  11.3292  13.8239

          k =-0.1000 0.9000-0.1000 (   176 PWs)   bands (ev):

     5.7071   5.7071   7.3706  11.9165  11.9165

          k = 0.0000 0.0000 0.9000 (   176 PWs)   bands (ev):

     5.8594   7.2878   7.2878   9.7714  11.1322

     the Fermi energy is     1.0499 ev

!    total energy              =      -0.69353813 Ry
     estimated scf accuracy    <          5.8E-10 Ry
     smearing contrib. (-TS)   =      -0.00006777 Ry
     internal energy E=F+TS    =      -0.69347035 Ry

     The total energy is F=E-TS. E is the sum of the following terms:
     one-electron contribution =       0.47076698 Ry
     hartree contribution      =       0.00134997 Ry
     xc contribution           =      -0.57094128 Ry
     ewald contribution        =      -0.59464602 Ry

     convergence has been achieved in   3 iterations

     Forces acting on atoms (cartesian axes, Ry/au):

     atom    1 type  1   force =     0.00000000    0.00000000    0.00000000

     Total force =     0.000000     Total SCF correction =     0.000000


     Computing stress (Cartesian axis) and pressure

          total   stress  (Ry/bohr**3)                   (kbar)     P=       25.28
   0.00017186  -0.00000000  -0.00000000           25.28       -0.00       -0.00
  -0.00000000   0.00017186   0.00000000           -0.00       25.28        0.00
   0.00000000   0.00000000   0.00017186            0.00        0.00       25.28


     Writing all to output data dir ./QE-outdir/li.save/ :
     XML data file, charge density, pseudopotentials, collected wavefunctions

     init_run     :      0.04s CPU      0.05s WALL (       1 calls)
     electrons    :      0.12s CPU      0.21s WALL (       1 calls)
     forces       :      0.00s CPU      0.00s WALL (       1 calls)
     stress       :      0.02s CPU      0.02s WALL (       1 calls)

     Called by init_run:
     wfcinit      :      0.03s CPU      0.04s WALL (       1 calls)
     potinit      :      0.00s CPU      0.00s WALL (       1 calls)
     hinit0       :      0.01s CPU      0.01s WALL (       1 calls)

     Called by electrons:
     c_bands      :      0.11s CPU      0.20s WALL (       4 calls)
     sum_band     :      0.01s CPU      0.01s WALL (       4 calls)
     v_of_rho     :      0.00s CPU      0.00s WALL (       4 calls)
     mix_rho      :      0.00s CPU      0.00s WALL (       4 calls)

     Called by c_bands:
     init_us_2    :      0.01s CPU      0.01s WALL (     484 calls)
     cegterg      :      0.10s CPU      0.19s WALL (     176 calls)

     Called by *egterg:
     cdiaghg      :      0.07s CPU      0.16s WALL (     594 calls)
     h_psi        :      0.05s CPU      0.05s WALL (     682 calls)
     g_psi        :      0.00s CPU      0.00s WALL (     462 calls)

     Called by h_psi:
     h_psi:calbec :      0.00s CPU      0.00s WALL (     682 calls)
     vloc_psi     :      0.05s CPU      0.05s WALL (     682 calls)
                                        0.00s GPU  (     682 calls)
     add_vuspsi   :      0.00s CPU      0.00s WALL (     682 calls)

     General routines
     calbec       :      0.01s CPU      0.01s WALL (    1430 calls)
     fft          :      0.00s CPU      0.00s WALL (      65 calls)
     ffts         :      0.00s CPU      0.00s WALL (       4 calls)
     fftw         :      0.04s CPU      0.04s WALL (    7162 calls)

     Parallel routines

     PWSCF        :      0.19s CPU      0.30s WALL


   This run was terminated on:  23:33:15  31Jan2026            

=------------------------------------------------------------------------------=
   JOB DONE.
=------------------------------------------------------------------------------=
