
     Program PWSCF v.7.5 starts on 26Jan2026 at 14: 5: 7 

     This program is part of the open-source Quantum ESPRESSO suite
     for quantum simulation of materials; please cite
         "P. Giannozzi et al., J. Phys.:Condens. Matter 21 395502 (2009);
         "P. Giannozzi et al., J. Phys.:Condens. Matter 29 465901 (2017);
         "P. Giannozzi et al., J. Chem. Phys. 152 154105 (2020);
          URL http://www.quantum-espresso.org", 
     in publications or presentations arising from this work. More details at
     http://www.quantum-espresso.org/quote

     Parallel version (MPI), running on     1 processors

     MPI processes distributed on     1 nodes
     0 MiB available memory on the printing compute node when the environment starts

     Waiting for input...
     Reading input from standard input
     Message from routine read_cards :
     DEPRECATED: no units specified in ATOMIC_POSITIONS card
     Message from routine read_cards :
     ATOMIC_POSITIONS: units set to alat

     Current dimensions of program PWSCF are:
     Max number of different atomic species (ntypx) = 10
     Max number of k-points (npk) =  40000
     Max angular momentum in pseudopotentials (lmaxx) =  4
     file Li.pbe-mt_fhi.UPF: wavefunction(s)  2p 4f renormalized

     Subspace diagonalization in iterative solution of the eigenvalue problem:
     a serial algorithm will be used


     G-vector sticks info
     --------------------
     sticks:   dense  smooth     PW     G-vecs:    dense   smooth      PW
     Sum         205     205     69                 1865     1865     381

     Using Slab Decomposition



     bravais-lattice index     =            3
     lattice parameter (alat)  =       6.8000  a.u.
     unit-cell volume          =     157.2160 (a.u.)^3
     number of atoms/cell      =            1
     number of atomic types    =            1
     number of electrons       =         1.00
     number of Kohn-Sham states=            5
     kinetic-energy cutoff     =      20.0000  Ry
     charge density cutoff     =      80.0000  Ry
     scf convergence threshold =      1.0E-08
     mixing beta               =       0.7000
     number of iterations used =            8  plain     mixing
     Exchange-correlation= PBE
                           (   1   4   3   4   0   0   0)

     celldm(1)=   6.800000  celldm(2)=   0.000000  celldm(3)=   0.000000
     celldm(4)=   0.000000  celldm(5)=   0.000000  celldm(6)=   0.000000

     crystal axes: (cart. coord. in units of alat)
               a(1) = (   0.500000   0.500000   0.500000 )  
               a(2) = (  -0.500000   0.500000   0.500000 )  
               a(3) = (  -0.500000  -0.500000   0.500000 )  

     reciprocal axes: (cart. coord. in units 2 pi/alat)
               b(1) = (  1.000000  0.000000  1.000000 )  
               b(2) = ( -1.000000  1.000000  0.000000 )  
               b(3) = (  0.000000 -1.000000  1.000000 )  


     PseudoPot. # 1 for Li read from file:
     ./pseudopot/Li.pbe-mt_fhi.UPF
     MD5 check sum: 3419f5616d131090147e867976aae79b
     Pseudo is Norm-conserving + core correction, Zval =  1.0
     Generated using FHI98PP, converted with fhi2upf.x v.5.0.2
     Using radial grid of  433 points,  3 beta functions with: 
                l(1) =   0
                l(2) =   1
                l(3) =   3

     atomic species   valence    mass     pseudopotential
     Li                1.00     6.94000     Li( 1.00)

     48 Sym. Ops., with inversion, found



   Cartesian axes

     site n.     atom                  positions (alat units)
         1        Li     tau(   1) = (   0.0000000   0.0000000   0.0000000  )

     number of k points=    44  Methfessel-Paxton smearing, width (Ry)=  0.0100
                       cart. coord. in units 2pi/alat
        k(    1) = (   0.0000000   0.0000000   0.1000000), wk =   0.0120000
        k(    2) = (   0.0000000  -0.1000000   0.2000000), wk =   0.0480000
        k(    3) = (   0.0000000  -0.2000000   0.3000000), wk =   0.0480000
        k(    4) = (   0.0000000  -0.3000000   0.4000000), wk =   0.0480000
        k(    5) = (   0.0000000  -0.4000000   0.5000000), wk =   0.0480000
        k(    6) = (  -0.1000000   0.1000000   0.1000000), wk =   0.0160000
        k(    7) = (  -0.1000000  -0.1000000   0.3000000), wk =   0.0480000
        k(    8) = (  -0.1000000  -0.2000000   0.4000000), wk =   0.0960000
        k(    9) = (  -0.1000000  -0.3000000   0.5000000), wk =   0.0960000
        k(   10) = (  -0.1000000   0.6000000  -0.4000000), wk =   0.0480000
        k(   11) = (  -0.2000000   0.2000000   0.1000000), wk =   0.0480000
        k(   12) = (  -0.2000000  -0.2000000   0.5000000), wk =   0.0480000
        k(   13) = (  -0.2000000   0.7000000  -0.4000000), wk =   0.0960000
        k(   14) = (  -0.3000000   0.3000000   0.1000000), wk =   0.0480000
        k(   15) = (  -0.3000000   0.2000000   0.2000000), wk =   0.0480000
        k(   16) = (  -0.3000000   0.7000000  -0.3000000), wk =   0.0160000
        k(   17) = (  -0.4000000   0.4000000   0.1000000), wk =   0.0480000
        k(   18) = (  -0.4000000   0.3000000   0.2000000), wk =   0.0960000
        k(   19) = (   0.5000000  -0.5000000   0.1000000), wk =   0.0240000
        k(   20) = (   0.5000000  -0.6000000   0.2000000), wk =   0.0960000
        k(   21) = (   0.5000000  -0.7000000   0.3000000), wk =   0.0480000
        k(   22) = (   0.4000000  -0.6000000   0.3000000), wk =   0.0480000
        k(   23) = (   0.0000000   0.0000000   0.3000000), wk =   0.0120000
        k(   24) = (   0.0000000  -0.1000000   0.4000000), wk =   0.0480000
        k(   25) = (   0.0000000  -0.2000000   0.5000000), wk =   0.0480000
        k(   26) = (   0.0000000  -0.3000000   0.6000000), wk =   0.0480000
        k(   27) = (  -0.1000000  -0.1000000   0.5000000), wk =   0.0480000
        k(   28) = (  -0.1000000  -0.2000000   0.6000000), wk =   0.0960000
        k(   29) = (  -0.1000000   0.7000000  -0.3000000), wk =   0.0480000
        k(   30) = (  -0.2000000   0.8000000  -0.3000000), wk =   0.0480000
        k(   31) = (  -0.3000000   0.3000000   0.3000000), wk =   0.0160000
        k(   32) = (   0.6000000  -0.6000000   0.3000000), wk =   0.0480000
        k(   33) = (   0.5000000  -0.5000000   0.3000000), wk =   0.0240000
        k(   34) = (   0.5000000  -0.6000000   0.4000000), wk =   0.0480000
        k(   35) = (   0.0000000   0.0000000   0.5000000), wk =   0.0120000
        k(   36) = (   0.0000000  -0.1000000   0.6000000), wk =   0.0480000
        k(   37) = (   0.0000000  -0.2000000   0.7000000), wk =   0.0480000
        k(   38) = (  -0.1000000  -0.1000000   0.7000000), wk =   0.0480000
        k(   39) = (  -0.1000000   0.8000000  -0.2000000), wk =   0.0480000
        k(   40) = (   0.5000000  -0.5000000   0.5000000), wk =   0.0040000
        k(   41) = (   0.0000000   0.0000000   0.7000000), wk =   0.0120000
        k(   42) = (   0.0000000  -0.1000000   0.8000000), wk =   0.0480000
        k(   43) = (  -0.1000000   0.9000000  -0.1000000), wk =   0.0160000
        k(   44) = (   0.0000000   0.0000000   0.9000000), wk =   0.0120000

     Dense  grid:     1865 G-vectors     FFT dimensions: (  18,  18,  18)

     Estimated max dynamical RAM per process >       2.39 MB

     Initial potential from superposition of free atoms

     starting charge       0.9960, renormalised to       1.0000
     Starting wfcs are   16 randomized atomic wfcs

     total cpu time spent up to now is        0.1 secs

     Self-consistent Calculation

     iteration #  1     ecut=    20.00 Ry     beta= 0.70
     Davidson diagonalization with overlap
     ethr =  1.00E-02,  avg # of iterations =  4.9

     Threshold (ethr) on eigenvalues was too large:
     Diagonalizing with lowered threshold

     Davidson diagonalization with overlap
     ethr =  1.71E-05,  avg # of iterations =  3.9

     total cpu time spent up to now is        0.3 secs

     total energy              =      -0.69338948 Ry
     estimated scf accuracy    <       0.00017038 Ry

     iteration #  2     ecut=    20.00 Ry     beta= 0.70
     Davidson diagonalization with overlap
     ethr =  1.70E-05,  avg # of iterations =  1.0

     total cpu time spent up to now is        0.4 secs

     total energy              =      -0.69338994 Ry
     estimated scf accuracy    <       0.00001553 Ry

     iteration #  3     ecut=    20.00 Ry     beta= 0.70
     Davidson diagonalization with overlap
     ethr =  1.55E-06,  avg # of iterations =  1.4

     total cpu time spent up to now is        0.4 secs

     End of self-consistent calculation

          k = 0.0000 0.0000 0.1000 (   229 PWs)   bands (ev):

    -3.1572  12.8642  12.8643  13.0971  16.7474

          k = 0.0000-0.1000 0.2000 (   227 PWs)   bands (ev):

    -2.7938  10.8867  11.6881  12.6304  15.1715

          k = 0.0000-0.2000 0.3000 (   236 PWs)   bands (ev):

    -2.0701   8.0405  10.5201  11.9146  14.5190

          k = 0.0000-0.3000 0.4000 (   238 PWs)   bands (ev):

    -1.0098   5.3975   9.6868  11.2793  13.6119

          k = 0.0000-0.4000 0.5000 (   242 PWs)   bands (ev):

     0.1968   3.3748   9.2601  10.9285  13.1557

          k =-0.1000 0.1000 0.1000 (   231 PWs)   bands (ev):

    -2.9758  11.9515  12.3226  12.3227  16.0564

          k =-0.1000-0.1000 0.3000 (   238 PWs)   bands (ev):

    -2.2484   9.3540   9.7893  12.0249  14.3763

          k =-0.1000-0.2000 0.4000 (   240 PWs)   bands (ev):

    -1.3466   6.7550   8.6915  11.3446  14.3564

          k =-0.1000-0.3000 0.5000 (   238 PWs)   bands (ev):

    -0.1449   4.3794   8.0778  10.8289  14.3711

          k =-0.1000 0.6000-0.4000 (   240 PWs)   bands (ev):

     0.7710   3.0618   7.8722  10.6440  14.3086

          k =-0.2000 0.2000 0.1000 (   231 PWs)   bands (ev):

    -2.4320   9.5177  10.9023  11.2613  15.5742

          k =-0.2000-0.2000 0.5000 (   238 PWs)   bands (ev):

    -0.2740   5.2813   6.9238  10.9206  14.6009

          k =-0.2000 0.7000-0.4000 (   234 PWs)   bands (ev):

     1.0255   3.4931   6.2601  10.6564  15.0372

          k =-0.3000 0.3000 0.1000 (   243 PWs)   bands (ev):

    -1.5338   6.6908   9.9936  10.3171  14.9356

          k =-0.3000 0.2000 0.2000 (   240 PWs)   bands (ev):

    -1.7090   7.9526   8.7650  10.1058  16.2890

          k =-0.3000 0.7000-0.3000 (   234 PWs)   bands (ev):

     2.3605   2.3605   5.5111  10.5961  16.2412

          k =-0.4000 0.4000 0.1000 (   243 PWs)   bands (ev):

    -0.3432   4.2837   9.4254   9.7109  14.4187

          k =-0.4000 0.3000 0.2000 (   238 PWs)   bands (ev):

    -0.6406   5.5264   7.7612   9.4425  16.3814

          k = 0.5000-0.5000 0.1000 (   242 PWs)   bands (ev):

     0.5446   2.9844   9.2324   9.5042  14.2316

          k = 0.5000-0.6000 0.2000 (   237 PWs)   bands (ev):

     0.6175   3.4838   7.3302   9.1022  16.2539

          k = 0.5000-0.7000 0.3000 (   238 PWs)   bands (ev):

     0.5844   4.1788   6.1234   9.0268  17.5503

          k = 0.4000-0.6000 0.3000 (   237 PWs)   bands (ev):

     1.6853   2.9205   5.6826   8.8857  17.7032

          k = 0.0000 0.0000 0.3000 (   233 PWs)   bands (ev):

    -2.4278  10.3867  10.3867  12.1027  13.0378

          k = 0.0000-0.1000 0.4000 (   238 PWs)   bands (ev):

    -1.6981   8.1755   9.1633  11.5984  12.5403

          k = 0.0000-0.2000 0.5000 (   235 PWs)   bands (ev):

    -0.6245   5.6290   8.3057  11.0238  13.2621

          k = 0.0000-0.3000 0.6000 (   236 PWs)   bands (ev):

     0.6237   3.5935   7.8697  10.7122  14.1866

          k =-0.1000-0.1000 0.5000 (   236 PWs)   bands (ev):

    -0.7862   6.7507   7.5863  11.6095  11.8538

          k =-0.1000-0.2000 0.6000 (   238 PWs)   bands (ev):

     0.4445   4.6573   6.8063  11.2230  12.6997

          k =-0.1000 0.7000-0.3000 (   239 PWs)   bands (ev):

     1.4479   3.3014   6.5824  11.0607  13.5264

          k =-0.2000 0.8000-0.3000 (   237 PWs)   bands (ev):

     1.7907   3.4728   5.6747  11.7805  12.9031

          k =-0.3000 0.3000 0.3000 (   234 PWs)   bands (ev):

    -0.8095   6.8783   6.8783   8.6248  17.7579

          k = 0.6000-0.6000 0.3000 (   240 PWs)   bands (ev):

     0.4189   4.5801   6.2198   8.1133  18.4840

          k = 0.5000-0.5000 0.3000 (   244 PWs)   bands (ev):

     1.4592   3.1563   5.9988   7.9601  18.6646

          k = 0.5000-0.6000 0.4000 (   235 PWs)   bands (ev):

     1.7845   3.5081   4.8907   7.7116  19.6838

          k = 0.0000 0.0000 0.5000 (   241 PWs)   bands (ev):

    -0.9562   7.9171   7.9171  10.2530  11.3672

          k = 0.0000-0.1000 0.6000 (   238 PWs)   bands (ev):

     0.1410   6.0585   7.0497   9.9964  11.4298

          k = 0.0000-0.2000 0.7000 (   238 PWs)   bands (ev):

     1.4649   4.0608   6.6098  10.0625  12.3905

          k =-0.1000-0.1000 0.7000 (   239 PWs)   bands (ev):

     1.4051   4.9642   5.9959  10.0615  11.3461

          k =-0.1000 0.8000-0.2000 (   240 PWs)   bands (ev):

     2.5636   3.6909   5.6597  10.4255  12.0183

          k = 0.5000-0.5000 0.5000 (   240 PWs)   bands (ev):

     3.2833   3.2833   3.2833   7.3506  21.5340

          k = 0.0000 0.0000 0.7000 (   237 PWs)   bands (ev):

     1.2716   6.1780   6.1780   8.3961  10.9003

          k = 0.0000-0.1000 0.8000 (   239 PWs)   bands (ev):

     2.6834   4.7802   5.7363   8.6572  10.5234

          k =-0.1000 0.9000-0.1000 (   236 PWs)   bands (ev):

     4.0629   4.0629   5.2584   9.1543   9.1543

          k = 0.0000 0.0000 0.9000 (   236 PWs)   bands (ev):

     4.1569   5.2938   5.2938   7.4676   8.5084

     the Fermi energy is     0.2124 ev

!    total energy              =      -0.69339006 Ry
     estimated scf accuracy    <          1.7E-09 Ry
     smearing contrib. (-TS)   =      -0.00002442 Ry
     internal energy E=F+TS    =      -0.69336564 Ry

     The total energy is F=E-TS. E is the sum of the following terms:
     one-electron contribution =       0.37257115 Ry
     hartree contribution      =       0.00081959 Ry
     xc contribution           =      -0.53157494 Ry
     ewald contribution        =      -0.53518144 Ry

     convergence has been achieved in   3 iterations

     Forces acting on atoms (cartesian axes, Ry/au):

     atom    1 type  1   force =     0.00000000    0.00000000    0.00000000

     Total force =     0.000000     Total SCF correction =     0.000000


     Computing stress (Cartesian axis) and pressure

          total   stress  (Ry/bohr**3)                   (kbar)     P=      -17.41
  -0.00011836  -0.00000000   0.00000000          -17.41       -0.00        0.00
  -0.00000000  -0.00011836  -0.00000000           -0.00      -17.41       -0.00
   0.00000000  -0.00000000  -0.00011836            0.00       -0.00      -17.41


     Writing all to output data dir ./QE-outdir/li.save/ :
     XML data file, charge density, pseudopotentials, collected wavefunctions

     init_run     :      0.06s CPU      0.08s WALL (       1 calls)
     electrons    :      0.23s CPU      0.32s WALL (       1 calls)
     forces       :      0.00s CPU      0.00s WALL (       1 calls)
     stress       :      0.03s CPU      0.03s WALL (       1 calls)

     Called by init_run:
     wfcinit      :      0.05s CPU      0.06s WALL (       1 calls)
     potinit      :      0.00s CPU      0.00s WALL (       1 calls)
     hinit0       :      0.01s CPU      0.01s WALL (       1 calls)

     Called by electrons:
     c_bands      :      0.20s CPU      0.29s WALL (       4 calls)
     sum_band     :      0.03s CPU      0.03s WALL (       4 calls)
     v_of_rho     :      0.00s CPU      0.00s WALL (       4 calls)
     mix_rho      :      0.00s CPU      0.00s WALL (       4 calls)

     Called by c_bands:
     init_us_2    :      0.01s CPU      0.01s WALL (     484 calls)
     cegterg      :      0.19s CPU      0.28s WALL (     176 calls)

     Called by *egterg:
     cdiaghg      :      0.07s CPU      0.18s WALL (     624 calls)
     h_psi        :      0.15s CPU      0.15s WALL (     712 calls)
     g_psi        :      0.00s CPU      0.00s WALL (     492 calls)

     Called by h_psi:
     h_psi:calbec :      0.00s CPU      0.00s WALL (     712 calls)
     vloc_psi     :      0.14s CPU      0.14s WALL (     712 calls)
                                        0.00s GPU  (     712 calls)
     add_vuspsi   :      0.00s CPU      0.00s WALL (     712 calls)

     General routines
     calbec       :      0.01s CPU      0.01s WALL (    1460 calls)
     fft          :      0.00s CPU      0.00s WALL (      65 calls)
     ffts         :      0.00s CPU      0.00s WALL (       4 calls)
     fftw         :      0.15s CPU      0.15s WALL (    7416 calls)

     Parallel routines

     PWSCF        :      0.33s CPU      0.45s WALL


   This run was terminated on:  14: 5: 7  26Jan2026            

=------------------------------------------------------------------------------=
   JOB DONE.
=------------------------------------------------------------------------------=
