
     Program PWSCF v.7.5 starts on 31Jan2026 at 23:33:18 

     This program is part of the open-source Quantum ESPRESSO suite
     for quantum simulation of materials; please cite
         "P. Giannozzi et al., J. Phys.:Condens. Matter 21 395502 (2009);
         "P. Giannozzi et al., J. Phys.:Condens. Matter 29 465901 (2017);
         "P. Giannozzi et al., J. Chem. Phys. 152 154105 (2020);
          URL http://www.quantum-espresso.org", 
     in publications or presentations arising from this work. More details at
     http://www.quantum-espresso.org/quote

     Parallel version (MPI), running on     1 processors

     MPI processes distributed on     1 nodes
     0 MiB available memory on the printing compute node when the environment starts

     Waiting for input...
     Reading input from standard input
     Message from routine read_cards :
     DEPRECATED: no units specified in ATOMIC_POSITIONS card
     Message from routine read_cards :
     ATOMIC_POSITIONS: units set to alat

     Current dimensions of program PWSCF are:
     Max number of different atomic species (ntypx) = 10
     Max number of k-points (npk) =  40000
     Max angular momentum in pseudopotentials (lmaxx) =  4
     file Li.pbe-mt_fhi.UPF: wavefunction(s)  2p 4f renormalized

     Subspace diagonalization in iterative solution of the eigenvalue problem:
     a serial algorithm will be used


     G-vector sticks info
     --------------------
     sticks:   dense  smooth     PW     G-vecs:    dense   smooth      PW
     Sum         173     173     63                 1505     1505     321

     Using Slab Decomposition



     bravais-lattice index     =            3
     lattice parameter (alat)  =       6.3200  a.u.
     unit-cell volume          =     126.2180 (a.u.)^3
     number of atoms/cell      =            1
     number of atomic types    =            1
     number of electrons       =         1.00
     number of Kohn-Sham states=            5
     kinetic-energy cutoff     =      20.0000  Ry
     charge density cutoff     =      80.0000  Ry
     scf convergence threshold =      1.0E-08
     mixing beta               =       0.7000
     number of iterations used =            8  plain     mixing
     Exchange-correlation= PBE
                           (   1   4   3   4   0   0   0)

     celldm(1)=   6.320000  celldm(2)=   0.000000  celldm(3)=   0.000000
     celldm(4)=   0.000000  celldm(5)=   0.000000  celldm(6)=   0.000000

     crystal axes: (cart. coord. in units of alat)
               a(1) = (   0.500000   0.500000   0.500000 )  
               a(2) = (  -0.500000   0.500000   0.500000 )  
               a(3) = (  -0.500000  -0.500000   0.500000 )  

     reciprocal axes: (cart. coord. in units 2 pi/alat)
               b(1) = (  1.000000  0.000000  1.000000 )  
               b(2) = ( -1.000000  1.000000  0.000000 )  
               b(3) = (  0.000000 -1.000000  1.000000 )  


     PseudoPot. # 1 for Li read from file:
     ./pseudopot/Li.pbe-mt_fhi.UPF
     MD5 check sum: 3419f5616d131090147e867976aae79b
     Pseudo is Norm-conserving + core correction, Zval =  1.0
     Generated using FHI98PP, converted with fhi2upf.x v.5.0.2
     Using radial grid of  433 points,  3 beta functions with: 
                l(1) =   0
                l(2) =   1
                l(3) =   3

     atomic species   valence    mass     pseudopotential
     Li                1.00     6.94000     Li( 1.00)

     48 Sym. Ops., with inversion, found



   Cartesian axes

     site n.     atom                  positions (alat units)
         1        Li     tau(   1) = (   0.0000000   0.0000000   0.0000000  )

     number of k points=    44  Methfessel-Paxton smearing, width (Ry)=  0.0100
                       cart. coord. in units 2pi/alat
        k(    1) = (   0.0000000   0.0000000   0.1000000), wk =   0.0120000
        k(    2) = (   0.0000000  -0.1000000   0.2000000), wk =   0.0480000
        k(    3) = (   0.0000000  -0.2000000   0.3000000), wk =   0.0480000
        k(    4) = (   0.0000000  -0.3000000   0.4000000), wk =   0.0480000
        k(    5) = (   0.0000000  -0.4000000   0.5000000), wk =   0.0480000
        k(    6) = (  -0.1000000   0.1000000   0.1000000), wk =   0.0160000
        k(    7) = (  -0.1000000  -0.1000000   0.3000000), wk =   0.0480000
        k(    8) = (  -0.1000000  -0.2000000   0.4000000), wk =   0.0960000
        k(    9) = (  -0.1000000  -0.3000000   0.5000000), wk =   0.0960000
        k(   10) = (  -0.1000000   0.6000000  -0.4000000), wk =   0.0480000
        k(   11) = (  -0.2000000   0.2000000   0.1000000), wk =   0.0480000
        k(   12) = (  -0.2000000  -0.2000000   0.5000000), wk =   0.0480000
        k(   13) = (  -0.2000000   0.7000000  -0.4000000), wk =   0.0960000
        k(   14) = (  -0.3000000   0.3000000   0.1000000), wk =   0.0480000
        k(   15) = (  -0.3000000   0.2000000   0.2000000), wk =   0.0480000
        k(   16) = (  -0.3000000   0.7000000  -0.3000000), wk =   0.0160000
        k(   17) = (  -0.4000000   0.4000000   0.1000000), wk =   0.0480000
        k(   18) = (  -0.4000000   0.3000000   0.2000000), wk =   0.0960000
        k(   19) = (   0.5000000  -0.5000000   0.1000000), wk =   0.0240000
        k(   20) = (   0.5000000  -0.6000000   0.2000000), wk =   0.0960000
        k(   21) = (   0.5000000  -0.7000000   0.3000000), wk =   0.0480000
        k(   22) = (   0.4000000  -0.6000000   0.3000000), wk =   0.0480000
        k(   23) = (   0.0000000   0.0000000   0.3000000), wk =   0.0120000
        k(   24) = (   0.0000000  -0.1000000   0.4000000), wk =   0.0480000
        k(   25) = (   0.0000000  -0.2000000   0.5000000), wk =   0.0480000
        k(   26) = (   0.0000000  -0.3000000   0.6000000), wk =   0.0480000
        k(   27) = (  -0.1000000  -0.1000000   0.5000000), wk =   0.0480000
        k(   28) = (  -0.1000000  -0.2000000   0.6000000), wk =   0.0960000
        k(   29) = (  -0.1000000   0.7000000  -0.3000000), wk =   0.0480000
        k(   30) = (  -0.2000000   0.8000000  -0.3000000), wk =   0.0480000
        k(   31) = (  -0.3000000   0.3000000   0.3000000), wk =   0.0160000
        k(   32) = (   0.6000000  -0.6000000   0.3000000), wk =   0.0480000
        k(   33) = (   0.5000000  -0.5000000   0.3000000), wk =   0.0240000
        k(   34) = (   0.5000000  -0.6000000   0.4000000), wk =   0.0480000
        k(   35) = (   0.0000000   0.0000000   0.5000000), wk =   0.0120000
        k(   36) = (   0.0000000  -0.1000000   0.6000000), wk =   0.0480000
        k(   37) = (   0.0000000  -0.2000000   0.7000000), wk =   0.0480000
        k(   38) = (  -0.1000000  -0.1000000   0.7000000), wk =   0.0480000
        k(   39) = (  -0.1000000   0.8000000  -0.2000000), wk =   0.0480000
        k(   40) = (   0.5000000  -0.5000000   0.5000000), wk =   0.0040000
        k(   41) = (   0.0000000   0.0000000   0.7000000), wk =   0.0120000
        k(   42) = (   0.0000000  -0.1000000   0.8000000), wk =   0.0480000
        k(   43) = (  -0.1000000   0.9000000  -0.1000000), wk =   0.0160000
        k(   44) = (   0.0000000   0.0000000   0.9000000), wk =   0.0120000

     Dense  grid:     1505 G-vectors     FFT dimensions: (  15,  15,  15)

     Estimated max dynamical RAM per process >       1.90 MB

     Initial potential from superposition of free atoms

     starting charge       0.9960, renormalised to       1.0000
     Starting wfcs are   16 randomized atomic wfcs

     total cpu time spent up to now is        0.1 secs

     Self-consistent Calculation

     iteration #  1     ecut=    20.00 Ry     beta= 0.70
     Davidson diagonalization with overlap
     ethr =  1.00E-02,  avg # of iterations =  4.4

     Threshold (ethr) on eigenvalues was too large:
     Diagonalizing with lowered threshold

     Davidson diagonalization with overlap
     ethr =  2.31E-05,  avg # of iterations =  3.7

     total cpu time spent up to now is        0.2 secs

     total energy              =      -0.69480292 Ry
     estimated scf accuracy    <       0.00023073 Ry

     iteration #  2     ecut=    20.00 Ry     beta= 0.70
     Davidson diagonalization with overlap
     ethr =  2.31E-05,  avg # of iterations =  1.1

     total cpu time spent up to now is        0.2 secs

     total energy              =      -0.69480121 Ry
     estimated scf accuracy    <       0.00002044 Ry

     iteration #  3     ecut=    20.00 Ry     beta= 0.70
     Davidson diagonalization with overlap
     ethr =  2.04E-06,  avg # of iterations =  1.4

     total cpu time spent up to now is        0.3 secs

     End of self-consistent calculation

          k = 0.0000 0.0000 0.1000 (   193 PWs)   bands (ev):

    -2.8927  15.5301  15.5302  15.8346  19.7564

          k = 0.0000-0.1000 0.2000 (   190 PWs)   bands (ev):

    -2.4970  13.1912  14.1259  15.2619  18.0078

          k = 0.0000-0.2000 0.3000 (   190 PWs)   bands (ev):

    -1.7078   9.8897  12.7519  14.3896  17.2322

          k = 0.0000-0.3000 0.4000 (   188 PWs)   bands (ev):

    -0.5558   6.8784  11.7779  13.6287  16.1809

          k = 0.0000-0.4000 0.5000 (   189 PWs)   bands (ev):

     0.7174   4.6474  11.2807  13.2129  15.6523

          k =-0.1000 0.1000 0.1000 (   189 PWs)   bands (ev):

    -2.6953  14.5012  14.8495  14.8495  19.0559

          k =-0.1000-0.1000 0.3000 (   189 PWs)   bands (ev):

    -1.9013  11.3271  11.9803  14.5359  17.0856

          k =-0.1000-0.2000 0.4000 (   191 PWs)   bands (ev):

    -0.9156   8.3634  10.6912  13.7090  17.1045

          k =-0.1000-0.3000 0.5000 (   187 PWs)   bands (ev):

     0.3870   5.6905   9.9759  13.0929  17.1928

          k =-0.1000 0.6000-0.4000 (   191 PWs)   bands (ev):

     1.3336   4.2740   9.7370  12.8739  17.1360

          k =-0.2000 0.2000 0.1000 (   192 PWs)   bands (ev):

    -2.1029  11.5799  13.2645  13.5609  18.5337

          k =-0.2000-0.2000 0.5000 (   187 PWs)   bands (ev):

     0.2618   6.5710   8.7940  13.2059  17.3541

          k =-0.2000 0.7000-0.4000 (   192 PWs)   bands (ev):

     1.6736   4.5672   8.0499  12.8973  17.9149

          k =-0.3000 0.3000 0.1000 (   190 PWs)   bands (ev):

    -1.1240   8.3288  12.2227  12.4408  17.7738

          k =-0.3000 0.2000 0.2000 (   187 PWs)   bands (ev):

    -1.3132   9.6778  10.7887  12.3354  19.4423

          k =-0.3000 0.7000-0.3000 (   191 PWs)   bands (ev):

     3.1778   3.1778   7.3069  12.8363  19.2540

          k =-0.4000 0.4000 0.1000 (   187 PWs)   bands (ev):

     0.1606   5.6168  11.5676  11.7274  17.1610

          k =-0.4000 0.3000 0.2000 (   187 PWs)   bands (ev):

    -0.1459   6.9251   9.5989  11.6069  19.5456

          k = 0.5000-0.5000 0.1000 (   188 PWs)   bands (ev):

     1.0709   4.2236  11.3447  11.4848  16.9401

          k = 0.5000-0.6000 0.2000 (   187 PWs)   bands (ev):

     1.2031   4.6617   9.0870  11.2325  19.3890

          k = 0.5000-0.7000 0.3000 (   187 PWs)   bands (ev):

     1.2013   5.2876   7.8281  11.1796  20.9773

          k = 0.4000-0.6000 0.3000 (   193 PWs)   bands (ev):

     2.3936   3.8824   7.3403  11.0349  21.1107

          k = 0.0000 0.0000 0.3000 (   189 PWs)   bands (ev):

    -2.0962  12.5771  12.5771  14.7656  15.4621

          k = 0.0000-0.1000 0.4000 (   190 PWs)   bands (ev):

    -1.2961  10.0078  11.1434  14.1149  15.0048

          k = 0.0000-0.2000 0.5000 (   189 PWs)   bands (ev):

    -0.1213   7.0996  10.1429  13.4547  15.8582

          k = 0.0000-0.3000 0.6000 (   188 PWs)   bands (ev):

     1.2123   4.8421   9.6356  13.1031  16.9585

          k =-0.1000-0.1000 0.5000 (   186 PWs)   bands (ev):

    -0.2916   8.2901   9.4147  14.1411  14.2088

          k =-0.1000-0.2000 0.6000 (   192 PWs)   bands (ev):

     1.0586   5.9231   8.5264  13.6597  15.2067

          k =-0.1000 0.7000-0.3000 (   200 PWs)   bands (ev):

     2.1193   4.4532   8.2660  13.4766  16.1717

          k =-0.2000 0.8000-0.3000 (   197 PWs)   bands (ev):

     2.5492   4.4711   7.3892  14.3319  15.3703

          k =-0.3000 0.3000 0.3000 (   186 PWs)   bands (ev):

    -0.3278   8.4232   8.4232  10.9039  21.1555

          k = 0.6000-0.6000 0.3000 (   190 PWs)   bands (ev):

     1.0204   5.8011   7.6565  10.3810  22.2864

          k = 0.5000-0.5000 0.3000 (   194 PWs)   bands (ev):

     2.1312   4.2384   7.3993  10.2225  22.1973

          k = 0.5000-0.6000 0.4000 (   190 PWs)   bands (ev):

     2.5374   4.5081   6.1797  10.0077  23.4465

          k = 0.0000 0.0000 0.5000 (   184 PWs)   bands (ev):

    -0.4739   9.6869   9.6869  12.2382  14.0806

          k = 0.0000-0.1000 0.6000 (   193 PWs)   bands (ev):

     0.7418   7.5388   8.6754  12.0288  14.1236

          k = 0.0000-0.2000 0.7000 (   198 PWs)   bands (ev):

     2.1868   5.2958   8.1637  12.2992  15.0401

          k =-0.1000-0.1000 0.7000 (   197 PWs)   bands (ev):

     2.1501   6.2129   7.5600  12.0604  14.0310

          k =-0.1000 0.8000-0.2000 (   198 PWs)   bands (ev):

     3.4164   4.7910   7.1983  12.5837  14.3416

          k = 0.5000-0.5000 0.5000 (   180 PWs)   bands (ev):

     4.2474   4.2474   4.2474   9.7161  25.6178

          k = 0.0000 0.0000 0.7000 (   196 PWs)   bands (ev):

     2.0154   7.6606   7.6606  10.0883  13.5877

          k = 0.0000-0.1000 0.8000 (   198 PWs)   bands (ev):

     3.5968   6.0545   7.1470  10.4513  12.7491

          k =-0.1000 0.9000-0.1000 (   197 PWs)   bands (ev):

     5.1663   5.1663   6.6756  11.0082  11.0083

          k = 0.0000 0.0000 0.9000 (   196 PWs)   bands (ev):

     5.2990   6.6327   6.6327   9.0133  10.2698

     the Fermi energy is     0.7669 ev

!    total energy              =      -0.69480128 Ry
     estimated scf accuracy    <          7.0E-10 Ry
     smearing contrib. (-TS)   =      -0.00007785 Ry
     internal energy E=F+TS    =      -0.69472343 Ry

     The total energy is F=E-TS. E is the sum of the following terms:
     one-electron contribution =       0.43829528 Ry
     hartree contribution      =       0.00118155 Ry
     xc contribution           =      -0.55837215 Ry
     ewald contribution        =      -0.57582812 Ry

     convergence has been achieved in   3 iterations

     Forces acting on atoms (cartesian axes, Ry/au):

     atom    1 type  1   force =     0.00000000    0.00000000    0.00000000

     Total force =     0.000000     Total SCF correction =     0.000000


     Computing stress (Cartesian axis) and pressure

          total   stress  (Ry/bohr**3)                   (kbar)     P=        7.40
   0.00005032   0.00000000   0.00000000            7.40        0.00        0.00
   0.00000000   0.00005032  -0.00000000            0.00        7.40       -0.00
   0.00000000  -0.00000000   0.00005032            0.00       -0.00        7.40


     Writing all to output data dir ./QE-outdir/li.save/ :
     XML data file, charge density, pseudopotentials, collected wavefunctions

     init_run     :      0.04s CPU      0.06s WALL (       1 calls)
     electrons    :      0.13s CPU      0.21s WALL (       1 calls)
     forces       :      0.00s CPU      0.00s WALL (       1 calls)
     stress       :      0.02s CPU      0.02s WALL (       1 calls)

     Called by init_run:
     wfcinit      :      0.03s CPU      0.04s WALL (       1 calls)
     potinit      :      0.00s CPU      0.00s WALL (       1 calls)
     hinit0       :      0.01s CPU      0.01s WALL (       1 calls)

     Called by electrons:
     c_bands      :      0.11s CPU      0.20s WALL (       4 calls)
     sum_band     :      0.01s CPU      0.01s WALL (       4 calls)
     v_of_rho     :      0.00s CPU      0.00s WALL (       4 calls)
     mix_rho      :      0.00s CPU      0.00s WALL (       4 calls)

     Called by c_bands:
     init_us_2    :      0.01s CPU      0.01s WALL (     484 calls)
     cegterg      :      0.11s CPU      0.19s WALL (     176 calls)

     Called by *egterg:
     cdiaghg      :      0.07s CPU      0.16s WALL (     597 calls)
     h_psi        :      0.05s CPU      0.06s WALL (     685 calls)
     g_psi        :      0.00s CPU      0.00s WALL (     465 calls)

     Called by h_psi:
     h_psi:calbec :      0.00s CPU      0.00s WALL (     685 calls)
     vloc_psi     :      0.05s CPU      0.05s WALL (     685 calls)
                                        0.00s GPU  (     685 calls)
     add_vuspsi   :      0.00s CPU      0.00s WALL (     685 calls)

     General routines
     calbec       :      0.01s CPU      0.01s WALL (    1433 calls)
     fft          :      0.00s CPU      0.00s WALL (      65 calls)
     ffts         :      0.00s CPU      0.00s WALL (       4 calls)
     fftw         :      0.04s CPU      0.04s WALL (    7224 calls)

     Parallel routines

     PWSCF        :      0.20s CPU      0.30s WALL


   This run was terminated on:  23:33:18  31Jan2026            

=------------------------------------------------------------------------------=
   JOB DONE.
=------------------------------------------------------------------------------=
