
     Program PWSCF v.7.5 starts on 26Jan2026 at 14: 5: 7 

     This program is part of the open-source Quantum ESPRESSO suite
     for quantum simulation of materials; please cite
         "P. Giannozzi et al., J. Phys.:Condens. Matter 21 395502 (2009);
         "P. Giannozzi et al., J. Phys.:Condens. Matter 29 465901 (2017);
         "P. Giannozzi et al., J. Chem. Phys. 152 154105 (2020);
          URL http://www.quantum-espresso.org", 
     in publications or presentations arising from this work. More details at
     http://www.quantum-espresso.org/quote

     Parallel version (MPI), running on     1 processors

     MPI processes distributed on     1 nodes
     0 MiB available memory on the printing compute node when the environment starts

     Waiting for input...
     Reading input from standard input
     Message from routine read_cards :
     DEPRECATED: no units specified in ATOMIC_POSITIONS card
     Message from routine read_cards :
     ATOMIC_POSITIONS: units set to alat

     Current dimensions of program PWSCF are:
     Max number of different atomic species (ntypx) = 10
     Max number of k-points (npk) =  40000
     Max angular momentum in pseudopotentials (lmaxx) =  4
     file Li.pbe-mt_fhi.UPF: wavefunction(s)  2p 4f renormalized

     Subspace diagonalization in iterative solution of the eigenvalue problem:
     a serial algorithm will be used


     G-vector sticks info
     --------------------
     sticks:   dense  smooth     PW     G-vecs:    dense   smooth      PW
     Sum         213     213     69                 1961     1961     381

     Using Slab Decomposition



     bravais-lattice index     =            3
     lattice parameter (alat)  =       6.8500  a.u.
     unit-cell volume          =     160.7096 (a.u.)^3
     number of atoms/cell      =            1
     number of atomic types    =            1
     number of electrons       =         1.00
     number of Kohn-Sham states=            5
     kinetic-energy cutoff     =      20.0000  Ry
     charge density cutoff     =      80.0000  Ry
     scf convergence threshold =      1.0E-08
     mixing beta               =       0.7000
     number of iterations used =            8  plain     mixing
     Exchange-correlation= PBE
                           (   1   4   3   4   0   0   0)

     celldm(1)=   6.850000  celldm(2)=   0.000000  celldm(3)=   0.000000
     celldm(4)=   0.000000  celldm(5)=   0.000000  celldm(6)=   0.000000

     crystal axes: (cart. coord. in units of alat)
               a(1) = (   0.500000   0.500000   0.500000 )  
               a(2) = (  -0.500000   0.500000   0.500000 )  
               a(3) = (  -0.500000  -0.500000   0.500000 )  

     reciprocal axes: (cart. coord. in units 2 pi/alat)
               b(1) = (  1.000000  0.000000  1.000000 )  
               b(2) = ( -1.000000  1.000000  0.000000 )  
               b(3) = (  0.000000 -1.000000  1.000000 )  


     PseudoPot. # 1 for Li read from file:
     ./pseudopot/Li.pbe-mt_fhi.UPF
     MD5 check sum: 3419f5616d131090147e867976aae79b
     Pseudo is Norm-conserving + core correction, Zval =  1.0
     Generated using FHI98PP, converted with fhi2upf.x v.5.0.2
     Using radial grid of  433 points,  3 beta functions with: 
                l(1) =   0
                l(2) =   1
                l(3) =   3

     atomic species   valence    mass     pseudopotential
     Li                1.00     6.94000     Li( 1.00)

     48 Sym. Ops., with inversion, found



   Cartesian axes

     site n.     atom                  positions (alat units)
         1        Li     tau(   1) = (   0.0000000   0.0000000   0.0000000  )

     number of k points=    44  Methfessel-Paxton smearing, width (Ry)=  0.0100
                       cart. coord. in units 2pi/alat
        k(    1) = (   0.0000000   0.0000000   0.1000000), wk =   0.0120000
        k(    2) = (   0.0000000  -0.1000000   0.2000000), wk =   0.0480000
        k(    3) = (   0.0000000  -0.2000000   0.3000000), wk =   0.0480000
        k(    4) = (   0.0000000  -0.3000000   0.4000000), wk =   0.0480000
        k(    5) = (   0.0000000  -0.4000000   0.5000000), wk =   0.0480000
        k(    6) = (  -0.1000000   0.1000000   0.1000000), wk =   0.0160000
        k(    7) = (  -0.1000000  -0.1000000   0.3000000), wk =   0.0480000
        k(    8) = (  -0.1000000  -0.2000000   0.4000000), wk =   0.0960000
        k(    9) = (  -0.1000000  -0.3000000   0.5000000), wk =   0.0960000
        k(   10) = (  -0.1000000   0.6000000  -0.4000000), wk =   0.0480000
        k(   11) = (  -0.2000000   0.2000000   0.1000000), wk =   0.0480000
        k(   12) = (  -0.2000000  -0.2000000   0.5000000), wk =   0.0480000
        k(   13) = (  -0.2000000   0.7000000  -0.4000000), wk =   0.0960000
        k(   14) = (  -0.3000000   0.3000000   0.1000000), wk =   0.0480000
        k(   15) = (  -0.3000000   0.2000000   0.2000000), wk =   0.0480000
        k(   16) = (  -0.3000000   0.7000000  -0.3000000), wk =   0.0160000
        k(   17) = (  -0.4000000   0.4000000   0.1000000), wk =   0.0480000
        k(   18) = (  -0.4000000   0.3000000   0.2000000), wk =   0.0960000
        k(   19) = (   0.5000000  -0.5000000   0.1000000), wk =   0.0240000
        k(   20) = (   0.5000000  -0.6000000   0.2000000), wk =   0.0960000
        k(   21) = (   0.5000000  -0.7000000   0.3000000), wk =   0.0480000
        k(   22) = (   0.4000000  -0.6000000   0.3000000), wk =   0.0480000
        k(   23) = (   0.0000000   0.0000000   0.3000000), wk =   0.0120000
        k(   24) = (   0.0000000  -0.1000000   0.4000000), wk =   0.0480000
        k(   25) = (   0.0000000  -0.2000000   0.5000000), wk =   0.0480000
        k(   26) = (   0.0000000  -0.3000000   0.6000000), wk =   0.0480000
        k(   27) = (  -0.1000000  -0.1000000   0.5000000), wk =   0.0480000
        k(   28) = (  -0.1000000  -0.2000000   0.6000000), wk =   0.0960000
        k(   29) = (  -0.1000000   0.7000000  -0.3000000), wk =   0.0480000
        k(   30) = (  -0.2000000   0.8000000  -0.3000000), wk =   0.0480000
        k(   31) = (  -0.3000000   0.3000000   0.3000000), wk =   0.0160000
        k(   32) = (   0.6000000  -0.6000000   0.3000000), wk =   0.0480000
        k(   33) = (   0.5000000  -0.5000000   0.3000000), wk =   0.0240000
        k(   34) = (   0.5000000  -0.6000000   0.4000000), wk =   0.0480000
        k(   35) = (   0.0000000   0.0000000   0.5000000), wk =   0.0120000
        k(   36) = (   0.0000000  -0.1000000   0.6000000), wk =   0.0480000
        k(   37) = (   0.0000000  -0.2000000   0.7000000), wk =   0.0480000
        k(   38) = (  -0.1000000  -0.1000000   0.7000000), wk =   0.0480000
        k(   39) = (  -0.1000000   0.8000000  -0.2000000), wk =   0.0480000
        k(   40) = (   0.5000000  -0.5000000   0.5000000), wk =   0.0040000
        k(   41) = (   0.0000000   0.0000000   0.7000000), wk =   0.0120000
        k(   42) = (   0.0000000  -0.1000000   0.8000000), wk =   0.0480000
        k(   43) = (  -0.1000000   0.9000000  -0.1000000), wk =   0.0160000
        k(   44) = (   0.0000000   0.0000000   0.9000000), wk =   0.0120000

     Dense  grid:     1961 G-vectors     FFT dimensions: (  18,  18,  18)

     Estimated max dynamical RAM per process >       2.46 MB

     Initial potential from superposition of free atoms

     starting charge       0.9960, renormalised to       1.0000
     Starting wfcs are   16 randomized atomic wfcs

     total cpu time spent up to now is        0.1 secs

     Self-consistent Calculation

     iteration #  1     ecut=    20.00 Ry     beta= 0.70
     Davidson diagonalization with overlap
     ethr =  1.00E-02,  avg # of iterations =  5.0

     Threshold (ethr) on eigenvalues was too large:
     Diagonalizing with lowered threshold

     Davidson diagonalization with overlap
     ethr =  1.69E-05,  avg # of iterations =  3.9

     total cpu time spent up to now is        0.3 secs

     total energy              =      -0.69296021 Ry
     estimated scf accuracy    <       0.00016850 Ry

     iteration #  2     ecut=    20.00 Ry     beta= 0.70
     Davidson diagonalization with overlap
     ethr =  1.68E-05,  avg # of iterations =  1.0

     total cpu time spent up to now is        0.4 secs

     total energy              =      -0.69296100 Ry
     estimated scf accuracy    <       0.00001536 Ry

     iteration #  3     ecut=    20.00 Ry     beta= 0.70
     Davidson diagonalization with overlap
     ethr =  1.54E-06,  avg # of iterations =  1.4

     total cpu time spent up to now is        0.4 secs

     End of self-consistent calculation

          k = 0.0000 0.0000 0.1000 (   237 PWs)   bands (ev):

    -3.1775  12.6181  12.6181  12.8453  16.4707

          k = 0.0000-0.1000 0.2000 (   233 PWs)   bands (ev):

    -2.8175  10.6745  11.4634  12.3884  14.9104

          k = 0.0000-0.2000 0.3000 (   242 PWs)   bands (ev):

    -2.1005   7.8706  10.3145  11.6863  14.2694

          k = 0.0000-0.3000 0.4000 (   248 PWs)   bands (ev):

    -1.0499   5.2624   9.4938  11.0624  13.3754

          k = 0.0000-0.4000 0.5000 (   244 PWs)   bands (ev):

     0.1494   3.2599   9.0743  10.7185  12.9260

          k =-0.1000 0.1000 0.1000 (   234 PWs)   bands (ev):

    -2.9977  11.7168  12.0902  12.0903  15.7809

          k =-0.1000-0.1000 0.3000 (   242 PWs)   bands (ev):

    -2.2773   9.1722   9.5879  11.7940  14.1272

          k =-0.1000-0.2000 0.4000 (   240 PWs)   bands (ev):

    -1.3841   6.6071   8.5084  11.1272  14.1036

          k =-0.1000-0.3000 0.5000 (   244 PWs)   bands (ev):

    -0.1928   4.2596   7.9040  10.6200  14.1113

          k =-0.1000 0.6000-0.4000 (   244 PWs)   bands (ev):

     0.7197   2.9516   7.7015  10.4388  14.0484

          k =-0.2000 0.2000 0.1000 (   243 PWs)   bands (ev):

    -2.4591   9.3268  10.6848  11.0491  15.3018

          k =-0.2000-0.2000 0.5000 (   240 PWs)   bands (ev):

    -0.3220   5.1629   6.7533  10.7105  14.3476

          k =-0.2000 0.7000-0.4000 (   242 PWs)   bands (ev):

     0.9663   3.3944   6.0977  10.4495  14.7720

          k =-0.3000 0.3000 0.1000 (   243 PWs)   bands (ev):

    -1.5693   6.5406   9.7894  10.1218  14.6747

          k =-0.3000 0.2000 0.2000 (   250 PWs)   bands (ev):

    -1.7429   7.7936   8.5779   9.9021  16.0940

          k =-0.3000 0.7000-0.3000 (   237 PWs)   bands (ev):

     2.2857   2.2857   5.3481  10.3901  15.9641

          k =-0.4000 0.4000 0.1000 (   247 PWs)   bands (ev):

    -0.3885   4.1625   9.2288   9.5252  14.1663

          k =-0.4000 0.3000 0.2000 (   248 PWs)   bands (ev):

    -0.6846   5.3977   7.5919   9.2448  16.0896

          k = 0.5000-0.5000 0.1000 (   250 PWs)   bands (ev):

     0.4965   2.8723   9.0383   9.3218  13.9823

          k = 0.5000-0.6000 0.2000 (   246 PWs)   bands (ev):

     0.5640   3.3762   7.1684   8.9081  15.9648

          k = 0.5000-0.7000 0.3000 (   245 PWs)   bands (ev):

     0.5283   4.0770   5.9665   8.8317  17.2340

          k = 0.4000-0.6000 0.3000 (   242 PWs)   bands (ev):

     1.6205   2.8321   5.5305   8.6912  17.3886

          k = 0.0000 0.0000 0.3000 (   241 PWs)   bands (ev):

    -2.4551  10.1849  10.1849  11.8569  12.8149

          k = 0.0000-0.1000 0.4000 (   243 PWs)   bands (ev):

    -1.7325   8.0069   8.9810  11.3653  12.3155

          k = 0.0000-0.2000 0.5000 (   242 PWs)   bands (ev):

    -0.6692   5.4943   8.1365  10.8001  13.0234

          k = 0.0000-0.3000 0.6000 (   244 PWs)   bands (ev):

     0.5700   3.4800   7.7069  10.4926  13.9312

          k =-0.1000-0.1000 0.5000 (   238 PWs)   bands (ev):

    -0.8299   6.6092   7.4184  11.3708  11.6436

          k =-0.1000-0.2000 0.6000 (   241 PWs)   bands (ev):

     0.3889   4.5411   6.6490  10.9984  12.4700

          k =-0.1000 0.7000-0.3000 (   239 PWs)   bands (ev):

     1.3865   3.1959   6.4288  10.8387  13.2836

          k =-0.2000 0.8000-0.3000 (   239 PWs)   bands (ev):

     1.7213   3.3812   5.5186  11.5457  12.6761

          k =-0.3000 0.3000 0.3000 (   240 PWs)   bands (ev):

    -0.8522   6.7362   6.7362   8.4174  17.4449

          k = 0.6000-0.6000 0.3000 (   243 PWs)   bands (ev):

     0.3644   4.4679   6.0878   7.9081  18.1604

          k = 0.5000-0.5000 0.3000 (   244 PWs)   bands (ev):

     1.3978   3.0570   5.8702   7.7556  18.3403

          k = 0.5000-0.6000 0.4000 (   244 PWs)   bands (ev):

     1.7155   3.4164   4.7716   7.5047  19.3355

          k = 0.0000 0.0000 0.5000 (   241 PWs)   bands (ev):

    -0.9985   7.7545   7.7545  10.0706  11.1188

          k = 0.0000-0.1000 0.6000 (   241 PWs)   bands (ev):

     0.0870   5.9224   6.9003   9.8084  11.1841

          k = 0.0000-0.2000 0.7000 (   242 PWs)   bands (ev):

     1.3988   3.9478   6.4669   9.8558  12.1484

          k =-0.1000-0.1000 0.7000 (   244 PWs)   bands (ev):

     1.3372   4.8495   5.8522   9.8779  11.0988

          k =-0.1000 0.8000-0.2000 (   244 PWs)   bands (ev):

     2.4855   3.5897   5.5189  10.2257  11.8047

          k = 0.5000-0.5000 0.5000 (   240 PWs)   bands (ev):

     3.1951   3.1951   3.1951   7.1371  21.1601

          k = 0.0000 0.0000 0.7000 (   245 PWs)   bands (ev):

     1.2039   6.0417   6.0417   8.2407  10.6520

          k = 0.0000-0.1000 0.8000 (   241 PWs)   bands (ev):

     2.5996   4.6632   5.6068   8.4922  10.3155

          k =-0.1000 0.9000-0.1000 (   242 PWs)   bands (ev):

     3.9616   3.9616   5.1278   8.9841   8.9841

          k = 0.0000 0.0000 0.9000 (   236 PWs)   bands (ev):

     4.0521   5.1710   5.1710   7.3257   8.3464

     the Fermi energy is     0.1631 ev

!    total energy              =      -0.69296113 Ry
     estimated scf accuracy    <          1.9E-09 Ry
     smearing contrib. (-TS)   =      -0.00001567 Ry
     internal energy E=F+TS    =      -0.69294546 Ry

     The total energy is F=E-TS. E is the sum of the following terms:
     one-electron contribution =       0.36656548 Ry
     hartree contribution      =       0.00078565 Ry
     xc contribution           =      -0.52902160 Ry
     ewald contribution        =      -0.53127499 Ry

     convergence has been achieved in   3 iterations

     Forces acting on atoms (cartesian axes, Ry/au):

     atom    1 type  1   force =     0.00000000    0.00000000    0.00000000

     Total force =     0.000000     Total SCF correction =     0.000000


     Computing stress (Cartesian axis) and pressure

          total   stress  (Ry/bohr**3)                   (kbar)     P=      -18.99
  -0.00012912  -0.00000000   0.00000000          -18.99       -0.00        0.00
  -0.00000000  -0.00012912  -0.00000000           -0.00      -18.99       -0.00
   0.00000000  -0.00000000  -0.00012912            0.00       -0.00      -18.99


     Writing all to output data dir ./QE-outdir/li.save/ :
     XML data file, charge density, pseudopotentials, collected wavefunctions

     init_run     :      0.06s CPU      0.08s WALL (       1 calls)
     electrons    :      0.23s CPU      0.32s WALL (       1 calls)
     forces       :      0.00s CPU      0.00s WALL (       1 calls)
     stress       :      0.03s CPU      0.03s WALL (       1 calls)

     Called by init_run:
     wfcinit      :      0.05s CPU      0.07s WALL (       1 calls)
     potinit      :      0.00s CPU      0.00s WALL (       1 calls)
     hinit0       :      0.01s CPU      0.01s WALL (       1 calls)

     Called by electrons:
     c_bands      :      0.20s CPU      0.29s WALL (       4 calls)
     sum_band     :      0.03s CPU      0.03s WALL (       4 calls)
     v_of_rho     :      0.00s CPU      0.00s WALL (       4 calls)
     mix_rho      :      0.00s CPU      0.00s WALL (       4 calls)

     Called by c_bands:
     init_us_2    :      0.01s CPU      0.01s WALL (     484 calls)
     cegterg      :      0.19s CPU      0.28s WALL (     176 calls)

     Called by *egterg:
     cdiaghg      :      0.07s CPU      0.18s WALL (     627 calls)
     h_psi        :      0.15s CPU      0.15s WALL (     715 calls)
     g_psi        :      0.00s CPU      0.00s WALL (     495 calls)

     Called by h_psi:
     h_psi:calbec :      0.00s CPU      0.00s WALL (     715 calls)
     vloc_psi     :      0.14s CPU      0.14s WALL (     715 calls)
                                        0.00s GPU  (     715 calls)
     add_vuspsi   :      0.00s CPU      0.00s WALL (     715 calls)

     General routines
     calbec       :      0.01s CPU      0.01s WALL (    1463 calls)
     fft          :      0.00s CPU      0.00s WALL (      65 calls)
     ffts         :      0.00s CPU      0.00s WALL (       4 calls)
     fftw         :      0.15s CPU      0.15s WALL (    7424 calls)

     Parallel routines

     PWSCF        :      0.33s CPU      0.45s WALL


   This run was terminated on:  14: 5: 8  26Jan2026            

=------------------------------------------------------------------------------=
   JOB DONE.
=------------------------------------------------------------------------------=
