
     Program PWSCF v.7.5 starts on 31Jan2026 at 23:33:17 

     This program is part of the open-source Quantum ESPRESSO suite
     for quantum simulation of materials; please cite
         "P. Giannozzi et al., J. Phys.:Condens. Matter 21 395502 (2009);
         "P. Giannozzi et al., J. Phys.:Condens. Matter 29 465901 (2017);
         "P. Giannozzi et al., J. Chem. Phys. 152 154105 (2020);
          URL http://www.quantum-espresso.org", 
     in publications or presentations arising from this work. More details at
     http://www.quantum-espresso.org/quote

     Parallel version (MPI), running on     1 processors

     MPI processes distributed on     1 nodes
     0 MiB available memory on the printing compute node when the environment starts

     Waiting for input...
     Reading input from standard input
     Message from routine read_cards :
     DEPRECATED: no units specified in ATOMIC_POSITIONS card
     Message from routine read_cards :
     ATOMIC_POSITIONS: units set to alat

     Current dimensions of program PWSCF are:
     Max number of different atomic species (ntypx) = 10
     Max number of k-points (npk) =  40000
     Max angular momentum in pseudopotentials (lmaxx) =  4
     file Li.pbe-mt_fhi.UPF: wavefunction(s)  2p 4f renormalized

     Subspace diagonalization in iterative solution of the eigenvalue problem:
     a serial algorithm will be used


     G-vector sticks info
     --------------------
     sticks:   dense  smooth     PW     G-vecs:    dense   smooth      PW
     Sum         173     173     63                 1481     1481     321

     Using Slab Decomposition



     bravais-lattice index     =            3
     lattice parameter (alat)  =       6.2600  a.u.
     unit-cell volume          =     122.6572 (a.u.)^3
     number of atoms/cell      =            1
     number of atomic types    =            1
     number of electrons       =         1.00
     number of Kohn-Sham states=            5
     kinetic-energy cutoff     =      20.0000  Ry
     charge density cutoff     =      80.0000  Ry
     scf convergence threshold =      1.0E-08
     mixing beta               =       0.7000
     number of iterations used =            8  plain     mixing
     Exchange-correlation= PBE
                           (   1   4   3   4   0   0   0)

     celldm(1)=   6.260000  celldm(2)=   0.000000  celldm(3)=   0.000000
     celldm(4)=   0.000000  celldm(5)=   0.000000  celldm(6)=   0.000000

     crystal axes: (cart. coord. in units of alat)
               a(1) = (   0.500000   0.500000   0.500000 )  
               a(2) = (  -0.500000   0.500000   0.500000 )  
               a(3) = (  -0.500000  -0.500000   0.500000 )  

     reciprocal axes: (cart. coord. in units 2 pi/alat)
               b(1) = (  1.000000  0.000000  1.000000 )  
               b(2) = ( -1.000000  1.000000  0.000000 )  
               b(3) = (  0.000000 -1.000000  1.000000 )  


     PseudoPot. # 1 for Li read from file:
     ./pseudopot/Li.pbe-mt_fhi.UPF
     MD5 check sum: 3419f5616d131090147e867976aae79b
     Pseudo is Norm-conserving + core correction, Zval =  1.0
     Generated using FHI98PP, converted with fhi2upf.x v.5.0.2
     Using radial grid of  433 points,  3 beta functions with: 
                l(1) =   0
                l(2) =   1
                l(3) =   3

     atomic species   valence    mass     pseudopotential
     Li                1.00     6.94000     Li( 1.00)

     48 Sym. Ops., with inversion, found



   Cartesian axes

     site n.     atom                  positions (alat units)
         1        Li     tau(   1) = (   0.0000000   0.0000000   0.0000000  )

     number of k points=    44  Methfessel-Paxton smearing, width (Ry)=  0.0100
                       cart. coord. in units 2pi/alat
        k(    1) = (   0.0000000   0.0000000   0.1000000), wk =   0.0120000
        k(    2) = (   0.0000000  -0.1000000   0.2000000), wk =   0.0480000
        k(    3) = (   0.0000000  -0.2000000   0.3000000), wk =   0.0480000
        k(    4) = (   0.0000000  -0.3000000   0.4000000), wk =   0.0480000
        k(    5) = (   0.0000000  -0.4000000   0.5000000), wk =   0.0480000
        k(    6) = (  -0.1000000   0.1000000   0.1000000), wk =   0.0160000
        k(    7) = (  -0.1000000  -0.1000000   0.3000000), wk =   0.0480000
        k(    8) = (  -0.1000000  -0.2000000   0.4000000), wk =   0.0960000
        k(    9) = (  -0.1000000  -0.3000000   0.5000000), wk =   0.0960000
        k(   10) = (  -0.1000000   0.6000000  -0.4000000), wk =   0.0480000
        k(   11) = (  -0.2000000   0.2000000   0.1000000), wk =   0.0480000
        k(   12) = (  -0.2000000  -0.2000000   0.5000000), wk =   0.0480000
        k(   13) = (  -0.2000000   0.7000000  -0.4000000), wk =   0.0960000
        k(   14) = (  -0.3000000   0.3000000   0.1000000), wk =   0.0480000
        k(   15) = (  -0.3000000   0.2000000   0.2000000), wk =   0.0480000
        k(   16) = (  -0.3000000   0.7000000  -0.3000000), wk =   0.0160000
        k(   17) = (  -0.4000000   0.4000000   0.1000000), wk =   0.0480000
        k(   18) = (  -0.4000000   0.3000000   0.2000000), wk =   0.0960000
        k(   19) = (   0.5000000  -0.5000000   0.1000000), wk =   0.0240000
        k(   20) = (   0.5000000  -0.6000000   0.2000000), wk =   0.0960000
        k(   21) = (   0.5000000  -0.7000000   0.3000000), wk =   0.0480000
        k(   22) = (   0.4000000  -0.6000000   0.3000000), wk =   0.0480000
        k(   23) = (   0.0000000   0.0000000   0.3000000), wk =   0.0120000
        k(   24) = (   0.0000000  -0.1000000   0.4000000), wk =   0.0480000
        k(   25) = (   0.0000000  -0.2000000   0.5000000), wk =   0.0480000
        k(   26) = (   0.0000000  -0.3000000   0.6000000), wk =   0.0480000
        k(   27) = (  -0.1000000  -0.1000000   0.5000000), wk =   0.0480000
        k(   28) = (  -0.1000000  -0.2000000   0.6000000), wk =   0.0960000
        k(   29) = (  -0.1000000   0.7000000  -0.3000000), wk =   0.0480000
        k(   30) = (  -0.2000000   0.8000000  -0.3000000), wk =   0.0480000
        k(   31) = (  -0.3000000   0.3000000   0.3000000), wk =   0.0160000
        k(   32) = (   0.6000000  -0.6000000   0.3000000), wk =   0.0480000
        k(   33) = (   0.5000000  -0.5000000   0.3000000), wk =   0.0240000
        k(   34) = (   0.5000000  -0.6000000   0.4000000), wk =   0.0480000
        k(   35) = (   0.0000000   0.0000000   0.5000000), wk =   0.0120000
        k(   36) = (   0.0000000  -0.1000000   0.6000000), wk =   0.0480000
        k(   37) = (   0.0000000  -0.2000000   0.7000000), wk =   0.0480000
        k(   38) = (  -0.1000000  -0.1000000   0.7000000), wk =   0.0480000
        k(   39) = (  -0.1000000   0.8000000  -0.2000000), wk =   0.0480000
        k(   40) = (   0.5000000  -0.5000000   0.5000000), wk =   0.0040000
        k(   41) = (   0.0000000   0.0000000   0.7000000), wk =   0.0120000
        k(   42) = (   0.0000000  -0.1000000   0.8000000), wk =   0.0480000
        k(   43) = (  -0.1000000   0.9000000  -0.1000000), wk =   0.0160000
        k(   44) = (   0.0000000   0.0000000   0.9000000), wk =   0.0120000

     Dense  grid:     1481 G-vectors     FFT dimensions: (  15,  15,  15)

     Estimated max dynamical RAM per process >       1.86 MB

     Initial potential from superposition of free atoms

     starting charge       0.9960, renormalised to       1.0000
     Starting wfcs are   16 randomized atomic wfcs

     total cpu time spent up to now is        0.1 secs

     Self-consistent Calculation

     iteration #  1     ecut=    20.00 Ry     beta= 0.70
     Davidson diagonalization with overlap
     ethr =  1.00E-02,  avg # of iterations =  4.2

     Threshold (ethr) on eigenvalues was too large:
     Diagonalizing with lowered threshold

     Davidson diagonalization with overlap
     ethr =  2.44E-05,  avg # of iterations =  3.8

     total cpu time spent up to now is        0.2 secs

     total energy              =      -0.69456162 Ry
     estimated scf accuracy    <       0.00024446 Ry

     iteration #  2     ecut=    20.00 Ry     beta= 0.70
     Davidson diagonalization with overlap
     ethr =  2.44E-05,  avg # of iterations =  1.0

     total cpu time spent up to now is        0.2 secs

     total energy              =      -0.69455968 Ry
     estimated scf accuracy    <       0.00002156 Ry

     iteration #  3     ecut=    20.00 Ry     beta= 0.70
     Davidson diagonalization with overlap
     ethr =  2.16E-06,  avg # of iterations =  1.5

     total cpu time spent up to now is        0.3 secs

     End of self-consistent calculation

          k = 0.0000 0.0000 0.1000 (   185 PWs)   bands (ev):

    -2.8488  15.9099  15.9099  16.2221  20.1829

          k = 0.0000-0.1000 0.2000 (   188 PWs)   bands (ev):

    -2.4492  13.5173  14.4708  15.6352  18.4104

          k = 0.0000-0.2000 0.3000 (   186 PWs)   bands (ev):

    -1.6519  10.1521  13.0681  14.7405  17.6167

          k = 0.0000-0.3000 0.4000 (   186 PWs)   bands (ev):

    -0.4889   7.0899  12.0742  13.9614  16.5449

          k = 0.0000-0.4000 0.5000 (   183 PWs)   bands (ev):

     0.7920   4.8312  11.5671  13.5361  16.0061

          k =-0.1000 0.1000 0.1000 (   189 PWs)   bands (ev):

    -2.6495  14.8621  15.2067  15.2067  19.4812

          k =-0.1000-0.1000 0.3000 (   186 PWs)   bands (ev):

    -1.8474  11.6067  12.2910  14.8915  17.4696

          k =-0.1000-0.2000 0.4000 (   182 PWs)   bands (ev):

    -0.8513   8.5916  10.9761  14.0446  17.4943

          k =-0.1000-0.3000 0.5000 (   183 PWs)   bands (ev):

     0.4637   5.8778  10.2461  13.4137  17.5925

          k =-0.1000 0.6000-0.4000 (   188 PWs)   bands (ev):

     1.4139   4.4480  10.0024  13.1894  17.5366

          k =-0.2000 0.2000 0.1000 (   183 PWs)   bands (ev):

    -2.0511  11.8723  13.6010  13.8865  18.9535

          k =-0.2000-0.2000 0.5000 (   181 PWs)   bands (ev):

     0.3396   6.7539   9.0613  13.5304  17.7445

          k =-0.2000 0.7000-0.4000 (   184 PWs)   bands (ev):

     1.7662   4.7197   8.3073  13.2151  18.3221

          k =-0.3000 0.3000 0.1000 (   185 PWs)   bands (ev):

    -1.0624   8.5616  12.5396  12.7415  18.1760

          k =-0.3000 0.2000 0.2000 (   182 PWs)   bands (ev):

    -1.2534   9.9225  11.0746  12.6537  19.8889

          k =-0.3000 0.7000-0.3000 (   185 PWs)   bands (ev):

     3.2943   3.2943   7.5647  13.1537  19.6809

          k =-0.4000 0.4000 0.1000 (   183 PWs)   bands (ev):

     0.2335   5.8081  11.8720  12.0128  17.5493

          k =-0.4000 0.3000 0.2000 (   181 PWs)   bands (ev):

    -0.0736   7.1237   9.8592  11.9170  19.9933

          k = 0.5000-0.5000 0.1000 (   188 PWs)   bands (ev):

     1.1459   4.4022  11.6447  11.7651  17.3236

          k = 0.5000-0.6000 0.2000 (   185 PWs)   bands (ev):

     1.2867   4.8300   9.3355  11.5377  19.8324

          k = 0.5000-0.7000 0.3000 (   181 PWs)   bands (ev):

     1.2897   5.4451   8.0698  11.4890  21.4436

          k = 0.4000-0.6000 0.3000 (   185 PWs)   bands (ev):

     2.4947   4.0190   7.5760  11.3438  21.5911

          k = 0.0000 0.0000 0.3000 (   177 PWs)   bands (ev):

    -2.0440  12.8885  12.8885  15.1431  15.8059

          k = 0.0000-0.1000 0.4000 (   185 PWs)   bands (ev):

    -1.2352  10.2676  11.4242  14.4691  15.3577

          k = 0.0000-0.2000 0.5000 (   185 PWs)   bands (ev):

    -0.0477   7.3088  10.4033  13.7997  16.2274

          k = 0.0000-0.3000 0.6000 (   186 PWs)   bands (ev):

     1.2962   5.0213   9.8858  13.4429  17.3508

          k =-0.1000-0.1000 0.5000 (   182 PWs)   bands (ev):

    -0.2188   8.5085   9.6742  14.4656  14.5772

          k =-0.1000-0.2000 0.6000 (   184 PWs)   bands (ev):

     1.1470   6.1028   8.7718  14.0047  15.5635

          k =-0.1000 0.7000-0.3000 (   193 PWs)   bands (ev):

     2.2151   4.6173   8.5062  13.8196  16.5475

          k =-0.2000 0.8000-0.3000 (   191 PWs)   bands (ev):

     2.6575   4.6129   7.6344  14.6933  15.7201

          k =-0.3000 0.3000 0.3000 (   183 PWs)   bands (ev):

    -0.2571   8.6424   8.6424  11.2301  21.6374

          k = 0.6000-0.6000 0.3000 (   184 PWs)   bands (ev):

     1.1068   5.9746   7.8602  10.7070  22.7917

          k = 0.5000-0.5000 0.3000 (   186 PWs)   bands (ev):

     2.2272   4.3923   7.5979  10.5488  22.6974

          k = 0.5000-0.6000 0.4000 (   184 PWs)   bands (ev):

     2.6448   4.6501   6.3618  10.3396  23.9797

          k = 0.0000 0.0000 0.5000 (   184 PWs)   bands (ev):

    -0.4026   9.9372   9.9372  12.5199  14.4656

          k = 0.0000-0.1000 0.6000 (   188 PWs)   bands (ev):

     0.8288   7.7487   8.9060  12.3160  14.5081

          k = 0.0000-0.2000 0.7000 (   195 PWs)   bands (ev):

     2.2897   5.4719   8.3838  12.6149  15.4173

          k =-0.1000-0.1000 0.7000 (   193 PWs)   bands (ev):

     2.2566   6.3902   7.7821  12.3440  14.4104

          k =-0.1000 0.8000-0.2000 (   192 PWs)   bands (ev):

     3.5378   4.9470   7.4176  12.8881  14.6710

          k = 0.5000-0.5000 0.5000 (   180 PWs)   bands (ev):

     4.3841   4.3841   4.3841  10.0573  26.1957

          k = 0.0000 0.0000 0.7000 (   188 PWs)   bands (ev):

     2.1222   7.8711   7.8711  10.3286  13.9667

          k = 0.0000-0.1000 0.8000 (   192 PWs)   bands (ev):

     3.7267   6.2353   7.3473  10.7056  13.0611

          k =-0.1000 0.9000-0.1000 (   188 PWs)   bands (ev):

     5.3230   5.3230   6.8772  11.2714  11.2714

          k = 0.0000 0.0000 0.9000 (   188 PWs)   bands (ev):

     5.4619   6.8223   6.8223   9.2329  10.5197

     the Fermi energy is     0.8481 ev

!    total energy              =      -0.69455975 Ry
     estimated scf accuracy    <          7.4E-10 Ry
     smearing contrib. (-TS)   =      -0.00007736 Ry
     internal energy E=F+TS    =      -0.69448239 Ry

     The total energy is F=E-TS. E is the sum of the following terms:
     one-electron contribution =       0.44768198 Ry
     hartree contribution      =       0.00123106 Ry
     xc contribution           =      -0.56204819 Ry
     ewald contribution        =      -0.58134723 Ry

     convergence has been achieved in   3 iterations

     Forces acting on atoms (cartesian axes, Ry/au):

     atom    1 type  1   force =     0.00000000    0.00000000    0.00000000

     Total force =     0.000000     Total SCF correction =     0.000000


     Computing stress (Cartesian axis) and pressure

          total   stress  (Ry/bohr**3)                   (kbar)     P=       12.17
   0.00008274   0.00000000  -0.00000000           12.17        0.00       -0.00
   0.00000000   0.00008274   0.00000000            0.00       12.17        0.00
  -0.00000000   0.00000000   0.00008274           -0.00        0.00       12.17


     Writing all to output data dir ./QE-outdir/li.save/ :
     XML data file, charge density, pseudopotentials, collected wavefunctions

     init_run     :      0.04s CPU      0.05s WALL (       1 calls)
     electrons    :      0.13s CPU      0.21s WALL (       1 calls)
     forces       :      0.00s CPU      0.00s WALL (       1 calls)
     stress       :      0.02s CPU      0.02s WALL (       1 calls)

     Called by init_run:
     wfcinit      :      0.03s CPU      0.04s WALL (       1 calls)
     potinit      :      0.00s CPU      0.00s WALL (       1 calls)
     hinit0       :      0.01s CPU      0.01s WALL (       1 calls)

     Called by electrons:
     c_bands      :      0.11s CPU      0.20s WALL (       4 calls)
     sum_band     :      0.01s CPU      0.01s WALL (       4 calls)
     v_of_rho     :      0.00s CPU      0.00s WALL (       4 calls)
     mix_rho      :      0.00s CPU      0.00s WALL (       4 calls)

     Called by c_bands:
     init_us_2    :      0.01s CPU      0.01s WALL (     484 calls)
     cegterg      :      0.11s CPU      0.19s WALL (     176 calls)

     Called by *egterg:
     cdiaghg      :      0.07s CPU      0.16s WALL (     593 calls)
     h_psi        :      0.05s CPU      0.05s WALL (     681 calls)
     g_psi        :      0.00s CPU      0.00s WALL (     461 calls)

     Called by h_psi:
     h_psi:calbec :      0.00s CPU      0.00s WALL (     681 calls)
     vloc_psi     :      0.05s CPU      0.05s WALL (     681 calls)
                                        0.00s GPU  (     681 calls)
     add_vuspsi   :      0.00s CPU      0.00s WALL (     681 calls)

     General routines
     calbec       :      0.01s CPU      0.01s WALL (    1429 calls)
     fft          :      0.00s CPU      0.00s WALL (      65 calls)
     ffts         :      0.00s CPU      0.00s WALL (       4 calls)
     fftw         :      0.04s CPU      0.04s WALL (    7210 calls)

     Parallel routines

     PWSCF        :      0.20s CPU      0.30s WALL


   This run was terminated on:  23:33:17  31Jan2026            

=------------------------------------------------------------------------------=
   JOB DONE.
=------------------------------------------------------------------------------=
