
     Program PWSCF v.7.5 starts on 26Jan2026 at 14: 5: 3 

     This program is part of the open-source Quantum ESPRESSO suite
     for quantum simulation of materials; please cite
         "P. Giannozzi et al., J. Phys.:Condens. Matter 21 395502 (2009);
         "P. Giannozzi et al., J. Phys.:Condens. Matter 29 465901 (2017);
         "P. Giannozzi et al., J. Chem. Phys. 152 154105 (2020);
          URL http://www.quantum-espresso.org", 
     in publications or presentations arising from this work. More details at
     http://www.quantum-espresso.org/quote

     Parallel version (MPI), running on     1 processors

     MPI processes distributed on     1 nodes
     0 MiB available memory on the printing compute node when the environment starts

     Waiting for input...
     Reading input from standard input
     Message from routine read_cards :
     DEPRECATED: no units specified in ATOMIC_POSITIONS card
     Message from routine read_cards :
     ATOMIC_POSITIONS: units set to alat

     Current dimensions of program PWSCF are:
     Max number of different atomic species (ntypx) = 10
     Max number of k-points (npk) =  40000
     Max angular momentum in pseudopotentials (lmaxx) =  4
     file Li.pbe-mt_fhi.UPF: wavefunction(s)  2p 4f renormalized

     Subspace diagonalization in iterative solution of the eigenvalue problem:
     a serial algorithm will be used


     G-vector sticks info
     --------------------
     sticks:   dense  smooth     PW     G-vecs:    dense   smooth      PW
     Sum         181     181     67                 1601     1601     369

     Using Slab Decomposition



     bravais-lattice index     =            3
     lattice parameter (alat)  =       6.4500  a.u.
     unit-cell volume          =     134.1681 (a.u.)^3
     number of atoms/cell      =            1
     number of atomic types    =            1
     number of electrons       =         1.00
     number of Kohn-Sham states=            5
     kinetic-energy cutoff     =      20.0000  Ry
     charge density cutoff     =      80.0000  Ry
     scf convergence threshold =      1.0E-08
     mixing beta               =       0.7000
     number of iterations used =            8  plain     mixing
     Exchange-correlation= PBE
                           (   1   4   3   4   0   0   0)

     celldm(1)=   6.450000  celldm(2)=   0.000000  celldm(3)=   0.000000
     celldm(4)=   0.000000  celldm(5)=   0.000000  celldm(6)=   0.000000

     crystal axes: (cart. coord. in units of alat)
               a(1) = (   0.500000   0.500000   0.500000 )  
               a(2) = (  -0.500000   0.500000   0.500000 )  
               a(3) = (  -0.500000  -0.500000   0.500000 )  

     reciprocal axes: (cart. coord. in units 2 pi/alat)
               b(1) = (  1.000000  0.000000  1.000000 )  
               b(2) = ( -1.000000  1.000000  0.000000 )  
               b(3) = (  0.000000 -1.000000  1.000000 )  


     PseudoPot. # 1 for Li read from file:
     ./pseudopot/Li.pbe-mt_fhi.UPF
     MD5 check sum: 3419f5616d131090147e867976aae79b
     Pseudo is Norm-conserving + core correction, Zval =  1.0
     Generated using FHI98PP, converted with fhi2upf.x v.5.0.2
     Using radial grid of  433 points,  3 beta functions with: 
                l(1) =   0
                l(2) =   1
                l(3) =   3

     atomic species   valence    mass     pseudopotential
     Li                1.00     6.94000     Li( 1.00)

     48 Sym. Ops., with inversion, found



   Cartesian axes

     site n.     atom                  positions (alat units)
         1        Li     tau(   1) = (   0.0000000   0.0000000   0.0000000  )

     number of k points=    44  Methfessel-Paxton smearing, width (Ry)=  0.0100
                       cart. coord. in units 2pi/alat
        k(    1) = (   0.0000000   0.0000000   0.1000000), wk =   0.0120000
        k(    2) = (   0.0000000  -0.1000000   0.2000000), wk =   0.0480000
        k(    3) = (   0.0000000  -0.2000000   0.3000000), wk =   0.0480000
        k(    4) = (   0.0000000  -0.3000000   0.4000000), wk =   0.0480000
        k(    5) = (   0.0000000  -0.4000000   0.5000000), wk =   0.0480000
        k(    6) = (  -0.1000000   0.1000000   0.1000000), wk =   0.0160000
        k(    7) = (  -0.1000000  -0.1000000   0.3000000), wk =   0.0480000
        k(    8) = (  -0.1000000  -0.2000000   0.4000000), wk =   0.0960000
        k(    9) = (  -0.1000000  -0.3000000   0.5000000), wk =   0.0960000
        k(   10) = (  -0.1000000   0.6000000  -0.4000000), wk =   0.0480000
        k(   11) = (  -0.2000000   0.2000000   0.1000000), wk =   0.0480000
        k(   12) = (  -0.2000000  -0.2000000   0.5000000), wk =   0.0480000
        k(   13) = (  -0.2000000   0.7000000  -0.4000000), wk =   0.0960000
        k(   14) = (  -0.3000000   0.3000000   0.1000000), wk =   0.0480000
        k(   15) = (  -0.3000000   0.2000000   0.2000000), wk =   0.0480000
        k(   16) = (  -0.3000000   0.7000000  -0.3000000), wk =   0.0160000
        k(   17) = (  -0.4000000   0.4000000   0.1000000), wk =   0.0480000
        k(   18) = (  -0.4000000   0.3000000   0.2000000), wk =   0.0960000
        k(   19) = (   0.5000000  -0.5000000   0.1000000), wk =   0.0240000
        k(   20) = (   0.5000000  -0.6000000   0.2000000), wk =   0.0960000
        k(   21) = (   0.5000000  -0.7000000   0.3000000), wk =   0.0480000
        k(   22) = (   0.4000000  -0.6000000   0.3000000), wk =   0.0480000
        k(   23) = (   0.0000000   0.0000000   0.3000000), wk =   0.0120000
        k(   24) = (   0.0000000  -0.1000000   0.4000000), wk =   0.0480000
        k(   25) = (   0.0000000  -0.2000000   0.5000000), wk =   0.0480000
        k(   26) = (   0.0000000  -0.3000000   0.6000000), wk =   0.0480000
        k(   27) = (  -0.1000000  -0.1000000   0.5000000), wk =   0.0480000
        k(   28) = (  -0.1000000  -0.2000000   0.6000000), wk =   0.0960000
        k(   29) = (  -0.1000000   0.7000000  -0.3000000), wk =   0.0480000
        k(   30) = (  -0.2000000   0.8000000  -0.3000000), wk =   0.0480000
        k(   31) = (  -0.3000000   0.3000000   0.3000000), wk =   0.0160000
        k(   32) = (   0.6000000  -0.6000000   0.3000000), wk =   0.0480000
        k(   33) = (   0.5000000  -0.5000000   0.3000000), wk =   0.0240000
        k(   34) = (   0.5000000  -0.6000000   0.4000000), wk =   0.0480000
        k(   35) = (   0.0000000   0.0000000   0.5000000), wk =   0.0120000
        k(   36) = (   0.0000000  -0.1000000   0.6000000), wk =   0.0480000
        k(   37) = (   0.0000000  -0.2000000   0.7000000), wk =   0.0480000
        k(   38) = (  -0.1000000  -0.1000000   0.7000000), wk =   0.0480000
        k(   39) = (  -0.1000000   0.8000000  -0.2000000), wk =   0.0480000
        k(   40) = (   0.5000000  -0.5000000   0.5000000), wk =   0.0040000
        k(   41) = (   0.0000000   0.0000000   0.7000000), wk =   0.0120000
        k(   42) = (   0.0000000  -0.1000000   0.8000000), wk =   0.0480000
        k(   43) = (  -0.1000000   0.9000000  -0.1000000), wk =   0.0160000
        k(   44) = (   0.0000000   0.0000000   0.9000000), wk =   0.0120000

     Dense  grid:     1601 G-vectors     FFT dimensions: (  15,  15,  15)

     Estimated max dynamical RAM per process >       1.98 MB

     Initial potential from superposition of free atoms

     starting charge       0.9960, renormalised to       1.0000
     Starting wfcs are   16 randomized atomic wfcs

     total cpu time spent up to now is        0.1 secs

     Self-consistent Calculation

     iteration #  1     ecut=    20.00 Ry     beta= 0.70
     Davidson diagonalization with overlap
     ethr =  1.00E-02,  avg # of iterations =  4.6

     Threshold (ethr) on eigenvalues was too large:
     Diagonalizing with lowered threshold

     Davidson diagonalization with overlap
     ethr =  2.07E-05,  avg # of iterations =  3.4

     total cpu time spent up to now is        0.2 secs

     total energy              =      -0.69496967 Ry
     estimated scf accuracy    <       0.00020636 Ry

     iteration #  2     ecut=    20.00 Ry     beta= 0.70
     Davidson diagonalization with overlap
     ethr =  2.06E-05,  avg # of iterations =  1.0

     total cpu time spent up to now is        0.2 secs

     total energy              =      -0.69496852 Ry
     estimated scf accuracy    <       0.00001839 Ry

     iteration #  3     ecut=    20.00 Ry     beta= 0.70
     Davidson diagonalization with overlap
     ethr =  1.84E-06,  avg # of iterations =  1.5

     total cpu time spent up to now is        0.3 secs

     End of self-consistent calculation

          k = 0.0000 0.0000 0.1000 (   201 PWs)   bands (ev):

    -2.9787  14.7480  14.7480  15.0310  18.8737

          k = 0.0000-0.1000 0.2000 (   202 PWs)   bands (ev):

    -2.5915  12.5144  13.4096  14.4904  17.1747

          k = 0.0000-0.2000 0.3000 (   199 PWs)   bands (ev):

    -1.8198   9.3466  12.0974  13.6641  16.4363

          k = 0.0000-0.3000 0.4000 (   197 PWs)   bands (ev):

    -0.6924   6.4417  11.1647  12.9396  15.4272

          k = 0.0000-0.4000 0.5000 (   199 PWs)   bands (ev):

     0.5637   4.2696  10.6880  12.5431  14.9198

          k =-0.1000 0.1000 0.1000 (   198 PWs)   bands (ev):

    -2.7854  13.7524  14.1087  14.1087  18.1751

          k =-0.1000-0.1000 0.3000 (   203 PWs)   bands (ev):

    -2.0094  10.7478  11.3372  13.7995  16.2900

          k =-0.1000-0.2000 0.4000 (   199 PWs)   bands (ev):

    -1.0463   7.8914  10.1032  13.0159  16.2982

          k =-0.1000-0.3000 0.5000 (   200 PWs)   bands (ev):

     0.2290   5.3037   9.4173  12.4290  16.3651

          k =-0.1000 0.6000-0.4000 (   199 PWs)   bands (ev):

     1.1678   3.9155   9.1882  12.2205  16.3067

          k =-0.2000 0.2000 0.1000 (   199 PWs)   bands (ev):

    -2.2060  10.9752  12.5708  12.8869  17.6651

          k =-0.2000-0.2000 0.5000 (   201 PWs)   bands (ev):

     0.1021   6.1921   8.2423  12.5356  16.5460

          k =-0.2000 0.7000-0.4000 (   204 PWs)   bands (ev):

     1.4826   4.2515   7.5203  12.2397  17.0711

          k =-0.3000 0.3000 0.1000 (   201 PWs)   bands (ev):

    -1.2488   7.8473  11.5672  11.8182  16.9415

          k =-0.3000 0.2000 0.2000 (   203 PWs)   bands (ev):

    -1.4344   9.1711  10.1964  11.6773  18.5167

          k =-0.3000 0.7000-0.3000 (   209 PWs)   bands (ev):

     2.9372   2.9372   6.7755  12.1775  18.3696

          k =-0.4000 0.4000 0.1000 (   199 PWs)   bands (ev):

     0.0108   5.2227  10.9380  11.1361  16.3568

          k =-0.4000 0.3000 0.2000 (   196 PWs)   bands (ev):

    -0.2939   6.5145   9.0604  10.9675  18.6179

          k = 0.5000-0.5000 0.1000 (   198 PWs)   bands (ev):

     0.9156   3.8562  10.7239  10.9041  16.1460

          k = 0.5000-0.6000 0.2000 (   204 PWs)   bands (ev):

     1.0303   4.3144   8.5716  10.6023  18.4704

          k = 0.5000-0.7000 0.3000 (   201 PWs)   bands (ev):

     1.0189   4.9617   7.3276  10.5424  20.0115

          k = 0.4000-0.6000 0.3000 (   204 PWs)   bands (ev):

     2.1850   3.6000   6.8532  10.3978  20.1129

          k = 0.0000 0.0000 0.3000 (   205 PWs)   bands (ev):

    -2.2002  11.9338  11.9338  13.9824  14.7505

          k = 0.0000-0.1000 0.4000 (   201 PWs)   bands (ev):

    -1.4191   9.4702  10.5623  13.3798  14.2770

          k = 0.0000-0.2000 0.5000 (   198 PWs)   bands (ev):

    -0.2720   6.6669   9.6044  12.7412  15.0952

          k = 0.0000-0.3000 0.6000 (   208 PWs)   bands (ev):

     1.0386   4.4727   9.1170  12.3995  16.1431

          k =-0.1000-0.1000 0.5000 (   204 PWs)   bands (ev):

    -0.4403   7.8380   8.8775  13.4442  13.4693

          k =-0.1000-0.2000 0.6000 (   207 PWs)   bands (ev):

     0.8768   5.5512   8.0196  12.9452  14.4690

          k =-0.1000 0.7000-0.3000 (   210 PWs)   bands (ev):

     1.9216   4.1143   7.7697  12.7672  15.3945

          k =-0.2000 0.8000-0.3000 (   205 PWs)   bands (ev):

     2.3260   4.1777   6.8830  13.5831  14.6464

          k =-0.3000 0.3000 0.3000 (   198 PWs)   bands (ev):

    -0.4725   7.9697   7.9697  10.2316  20.1575

          k = 0.6000-0.6000 0.3000 (   198 PWs)   bands (ev):

     0.8424   5.4427   7.2351   9.7093  21.2416

          k = 0.5000-0.5000 0.3000 (   206 PWs)   bands (ev):

     1.9332   3.9203   6.9883   9.5519  21.1608

          k = 0.5000-0.6000 0.4000 (   204 PWs)   bands (ev):

     2.3157   4.2139   5.8020   9.3256  22.3424

          k = 0.0000 0.0000 0.5000 (   201 PWs)   bands (ev):

    -0.6194   9.1669   9.1669  11.6552  13.2829

          k = 0.0000-0.1000 0.6000 (   204 PWs)   bands (ev):

     0.5631   7.1042   8.1984  11.4338  13.3292

          k = 0.0000-0.2000 0.7000 (   208 PWs)   bands (ev):

     1.9742   4.9321   7.7075  11.6446  14.2602

          k =-0.1000-0.1000 0.7000 (   208 PWs)   bands (ev):

     1.9303   5.8462   7.1003  11.4734  13.2441

          k =-0.1000 0.8000-0.2000 (   208 PWs)   bands (ev):

     3.1654   4.4681   6.7454  11.9524  13.6597

          k = 0.5000-0.5000 0.5000 (   216 PWs)   bands (ev):

     3.9633   3.9633   3.9633   9.0136  24.4134

          k = 0.0000 0.0000 0.7000 (   212 PWs)   bands (ev):

     1.7955   7.2250   7.2250   9.5912  12.8012

          k = 0.0000-0.1000 0.8000 (   216 PWs)   bands (ev):

     3.3280   5.6799   6.7322   9.9246  12.1009

          k =-0.1000 0.9000-0.1000 (   212 PWs)   bands (ev):

     4.8418   4.8418   6.2592  10.4638  10.4638

          k = 0.0000 0.0000 0.9000 (   212 PWs)   bands (ev):

     4.9636   6.2393   6.2393   8.5591   9.7526

     the Fermi energy is     0.6009 ev

!    total energy              =      -0.69496860 Ry
     estimated scf accuracy    <          9.1E-10 Ry
     smearing contrib. (-TS)   =      -0.00007216 Ry
     internal energy E=F+TS    =      -0.69489644 Ry

     The total energy is F=E-TS. E is the sum of the following terms:
     one-electron contribution =       0.41892123 Ry
     hartree contribution      =       0.00107739 Ry
     xc contribution           =      -0.55067279 Ry
     ewald contribution        =      -0.56422228 Ry

     convergence has been achieved in   3 iterations

     Forces acting on atoms (cartesian axes, Ry/au):

     atom    1 type  1   force =     0.00000000    0.00000000    0.00000000

     Total force =     0.000000     Total SCF correction =     0.000000


     Computing stress (Cartesian axis) and pressure

          total   stress  (Ry/bohr**3)                   (kbar)     P=       -1.43
  -0.00000973   0.00000000  -0.00000000           -1.43        0.00       -0.00
   0.00000000  -0.00000973   0.00000000            0.00       -1.43        0.00
  -0.00000000   0.00000000  -0.00000973           -0.00        0.00       -1.43


     Writing all to output data dir ./QE-outdir/li.save/ :
     XML data file, charge density, pseudopotentials, collected wavefunctions

     init_run     :      0.04s CPU      0.06s WALL (       1 calls)
     electrons    :      0.13s CPU      0.22s WALL (       1 calls)
     forces       :      0.00s CPU      0.00s WALL (       1 calls)
     stress       :      0.02s CPU      0.02s WALL (       1 calls)

     Called by init_run:
     wfcinit      :      0.03s CPU      0.04s WALL (       1 calls)
     potinit      :      0.00s CPU      0.00s WALL (       1 calls)
     hinit0       :      0.01s CPU      0.01s WALL (       1 calls)

     Called by electrons:
     c_bands      :      0.12s CPU      0.20s WALL (       4 calls)
     sum_band     :      0.01s CPU      0.01s WALL (       4 calls)
     v_of_rho     :      0.00s CPU      0.00s WALL (       4 calls)
     mix_rho      :      0.00s CPU      0.00s WALL (       4 calls)

     Called by c_bands:
     init_us_2    :      0.01s CPU      0.01s WALL (     484 calls)
     cegterg      :      0.11s CPU      0.19s WALL (     176 calls)

     Called by *egterg:
     cdiaghg      :      0.07s CPU      0.16s WALL (     594 calls)
     h_psi        :      0.05s CPU      0.06s WALL (     682 calls)
     g_psi        :      0.00s CPU      0.00s WALL (     462 calls)

     Called by h_psi:
     h_psi:calbec :      0.00s CPU      0.00s WALL (     682 calls)
     vloc_psi     :      0.05s CPU      0.05s WALL (     682 calls)
                                        0.00s GPU  (     682 calls)
     add_vuspsi   :      0.00s CPU      0.00s WALL (     682 calls)

     General routines
     calbec       :      0.01s CPU      0.01s WALL (    1430 calls)
     fft          :      0.00s CPU      0.00s WALL (      65 calls)
     ffts         :      0.00s CPU      0.00s WALL (       4 calls)
     fftw         :      0.04s CPU      0.05s WALL (    7262 calls)

     Parallel routines

     PWSCF        :      0.20s CPU      0.31s WALL


   This run was terminated on:  14: 5: 4  26Jan2026            

=------------------------------------------------------------------------------=
   JOB DONE.
=------------------------------------------------------------------------------=
