
     Program PWSCF v.7.5 starts on 26Jan2026 at 14: 5: 2 

     This program is part of the open-source Quantum ESPRESSO suite
     for quantum simulation of materials; please cite
         "P. Giannozzi et al., J. Phys.:Condens. Matter 21 395502 (2009);
         "P. Giannozzi et al., J. Phys.:Condens. Matter 29 465901 (2017);
         "P. Giannozzi et al., J. Chem. Phys. 152 154105 (2020);
          URL http://www.quantum-espresso.org", 
     in publications or presentations arising from this work. More details at
     http://www.quantum-espresso.org/quote

     Parallel version (MPI), running on     1 processors

     MPI processes distributed on     1 nodes
     0 MiB available memory on the printing compute node when the environment starts

     Waiting for input...
     Reading input from standard input
     Message from routine read_cards :
     DEPRECATED: no units specified in ATOMIC_POSITIONS card
     Message from routine read_cards :
     ATOMIC_POSITIONS: units set to alat

     Current dimensions of program PWSCF are:
     Max number of different atomic species (ntypx) = 10
     Max number of k-points (npk) =  40000
     Max angular momentum in pseudopotentials (lmaxx) =  4
     file Li.pbe-mt_fhi.UPF: wavefunction(s)  2p 4f renormalized

     Subspace diagonalization in iterative solution of the eigenvalue problem:
     a serial algorithm will be used


     G-vector sticks info
     --------------------
     sticks:   dense  smooth     PW     G-vecs:    dense   smooth      PW
     Sum         173     173     63                 1505     1505     321

     Using Slab Decomposition



     bravais-lattice index     =            3
     lattice parameter (alat)  =       6.3500  a.u.
     unit-cell volume          =     128.0239 (a.u.)^3
     number of atoms/cell      =            1
     number of atomic types    =            1
     number of electrons       =         1.00
     number of Kohn-Sham states=            5
     kinetic-energy cutoff     =      20.0000  Ry
     charge density cutoff     =      80.0000  Ry
     scf convergence threshold =      1.0E-08
     mixing beta               =       0.7000
     number of iterations used =            8  plain     mixing
     Exchange-correlation= PBE
                           (   1   4   3   4   0   0   0)

     celldm(1)=   6.350000  celldm(2)=   0.000000  celldm(3)=   0.000000
     celldm(4)=   0.000000  celldm(5)=   0.000000  celldm(6)=   0.000000

     crystal axes: (cart. coord. in units of alat)
               a(1) = (   0.500000   0.500000   0.500000 )  
               a(2) = (  -0.500000   0.500000   0.500000 )  
               a(3) = (  -0.500000  -0.500000   0.500000 )  

     reciprocal axes: (cart. coord. in units 2 pi/alat)
               b(1) = (  1.000000  0.000000  1.000000 )  
               b(2) = ( -1.000000  1.000000  0.000000 )  
               b(3) = (  0.000000 -1.000000  1.000000 )  


     PseudoPot. # 1 for Li read from file:
     ./pseudopot/Li.pbe-mt_fhi.UPF
     MD5 check sum: 3419f5616d131090147e867976aae79b
     Pseudo is Norm-conserving + core correction, Zval =  1.0
     Generated using FHI98PP, converted with fhi2upf.x v.5.0.2
     Using radial grid of  433 points,  3 beta functions with: 
                l(1) =   0
                l(2) =   1
                l(3) =   3

     atomic species   valence    mass     pseudopotential
     Li                1.00     6.94000     Li( 1.00)

     48 Sym. Ops., with inversion, found



   Cartesian axes

     site n.     atom                  positions (alat units)
         1        Li     tau(   1) = (   0.0000000   0.0000000   0.0000000  )

     number of k points=    44  Methfessel-Paxton smearing, width (Ry)=  0.0100
                       cart. coord. in units 2pi/alat
        k(    1) = (   0.0000000   0.0000000   0.1000000), wk =   0.0120000
        k(    2) = (   0.0000000  -0.1000000   0.2000000), wk =   0.0480000
        k(    3) = (   0.0000000  -0.2000000   0.3000000), wk =   0.0480000
        k(    4) = (   0.0000000  -0.3000000   0.4000000), wk =   0.0480000
        k(    5) = (   0.0000000  -0.4000000   0.5000000), wk =   0.0480000
        k(    6) = (  -0.1000000   0.1000000   0.1000000), wk =   0.0160000
        k(    7) = (  -0.1000000  -0.1000000   0.3000000), wk =   0.0480000
        k(    8) = (  -0.1000000  -0.2000000   0.4000000), wk =   0.0960000
        k(    9) = (  -0.1000000  -0.3000000   0.5000000), wk =   0.0960000
        k(   10) = (  -0.1000000   0.6000000  -0.4000000), wk =   0.0480000
        k(   11) = (  -0.2000000   0.2000000   0.1000000), wk =   0.0480000
        k(   12) = (  -0.2000000  -0.2000000   0.5000000), wk =   0.0480000
        k(   13) = (  -0.2000000   0.7000000  -0.4000000), wk =   0.0960000
        k(   14) = (  -0.3000000   0.3000000   0.1000000), wk =   0.0480000
        k(   15) = (  -0.3000000   0.2000000   0.2000000), wk =   0.0480000
        k(   16) = (  -0.3000000   0.7000000  -0.3000000), wk =   0.0160000
        k(   17) = (  -0.4000000   0.4000000   0.1000000), wk =   0.0480000
        k(   18) = (  -0.4000000   0.3000000   0.2000000), wk =   0.0960000
        k(   19) = (   0.5000000  -0.5000000   0.1000000), wk =   0.0240000
        k(   20) = (   0.5000000  -0.6000000   0.2000000), wk =   0.0960000
        k(   21) = (   0.5000000  -0.7000000   0.3000000), wk =   0.0480000
        k(   22) = (   0.4000000  -0.6000000   0.3000000), wk =   0.0480000
        k(   23) = (   0.0000000   0.0000000   0.3000000), wk =   0.0120000
        k(   24) = (   0.0000000  -0.1000000   0.4000000), wk =   0.0480000
        k(   25) = (   0.0000000  -0.2000000   0.5000000), wk =   0.0480000
        k(   26) = (   0.0000000  -0.3000000   0.6000000), wk =   0.0480000
        k(   27) = (  -0.1000000  -0.1000000   0.5000000), wk =   0.0480000
        k(   28) = (  -0.1000000  -0.2000000   0.6000000), wk =   0.0960000
        k(   29) = (  -0.1000000   0.7000000  -0.3000000), wk =   0.0480000
        k(   30) = (  -0.2000000   0.8000000  -0.3000000), wk =   0.0480000
        k(   31) = (  -0.3000000   0.3000000   0.3000000), wk =   0.0160000
        k(   32) = (   0.6000000  -0.6000000   0.3000000), wk =   0.0480000
        k(   33) = (   0.5000000  -0.5000000   0.3000000), wk =   0.0240000
        k(   34) = (   0.5000000  -0.6000000   0.4000000), wk =   0.0480000
        k(   35) = (   0.0000000   0.0000000   0.5000000), wk =   0.0120000
        k(   36) = (   0.0000000  -0.1000000   0.6000000), wk =   0.0480000
        k(   37) = (   0.0000000  -0.2000000   0.7000000), wk =   0.0480000
        k(   38) = (  -0.1000000  -0.1000000   0.7000000), wk =   0.0480000
        k(   39) = (  -0.1000000   0.8000000  -0.2000000), wk =   0.0480000
        k(   40) = (   0.5000000  -0.5000000   0.5000000), wk =   0.0040000
        k(   41) = (   0.0000000   0.0000000   0.7000000), wk =   0.0120000
        k(   42) = (   0.0000000  -0.1000000   0.8000000), wk =   0.0480000
        k(   43) = (  -0.1000000   0.9000000  -0.1000000), wk =   0.0160000
        k(   44) = (   0.0000000   0.0000000   0.9000000), wk =   0.0120000

     Dense  grid:     1505 G-vectors     FFT dimensions: (  15,  15,  15)

     Estimated max dynamical RAM per process >       1.90 MB

     Initial potential from superposition of free atoms

     starting charge       0.9960, renormalised to       1.0000
     Starting wfcs are   16 randomized atomic wfcs

     total cpu time spent up to now is        0.1 secs

     Self-consistent Calculation

     iteration #  1     ecut=    20.00 Ry     beta= 0.70
     Davidson diagonalization with overlap
     ethr =  1.00E-02,  avg # of iterations =  4.4

     Threshold (ethr) on eigenvalues was too large:
     Diagonalizing with lowered threshold

     Davidson diagonalization with overlap
     ethr =  2.25E-05,  avg # of iterations =  3.7

     total cpu time spent up to now is        0.2 secs

     total energy              =      -0.69488317 Ry
     estimated scf accuracy    <       0.00022445 Ry

     iteration #  2     ecut=    20.00 Ry     beta= 0.70
     Davidson diagonalization with overlap
     ethr =  2.24E-05,  avg # of iterations =  1.0

     total cpu time spent up to now is        0.2 secs

     total energy              =      -0.69488160 Ry
     estimated scf accuracy    <       0.00001992 Ry

     iteration #  3     ecut=    20.00 Ry     beta= 0.70
     Davidson diagonalization with overlap
     ethr =  1.99E-06,  avg # of iterations =  1.4

     total cpu time spent up to now is        0.3 secs

     End of self-consistent calculation

          k = 0.0000 0.0000 0.1000 (   197 PWs)   bands (ev):

    -2.9137  15.3447  15.3447  15.6447  19.5478

          k = 0.0000-0.1000 0.2000 (   192 PWs)   bands (ev):

    -2.5198  13.0310  13.9570  15.0796  17.8113

          k = 0.0000-0.2000 0.3000 (   192 PWs)   bands (ev):

    -1.7347   9.7613  12.5973  14.2182  17.0441

          k = 0.0000-0.3000 0.4000 (   190 PWs)   bands (ev):

    -0.5883   6.7749  11.6330  13.4661  16.0027

          k = 0.0000-0.4000 0.5000 (   190 PWs)   bands (ev):

     0.6810   4.5578  11.1409  13.0548  15.4792

          k =-0.1000 0.1000 0.1000 (   189 PWs)   bands (ev):

    -2.7172  14.3246  14.6747  14.6747  18.8479

          k =-0.1000-0.1000 0.3000 (   189 PWs)   bands (ev):

    -1.9272  11.1906  11.8285  14.3622  16.8978

          k =-0.1000-0.2000 0.4000 (   192 PWs)   bands (ev):

    -0.9468   8.2518  10.5522  13.5454  16.9139

          k =-0.1000-0.3000 0.5000 (   191 PWs)   bands (ev):

     0.3495   5.5989   9.8437  12.9361  16.9972

          k =-0.1000 0.6000-0.4000 (   195 PWs)   bands (ev):

     1.2943   4.1891   9.6069  12.7195  16.9401

          k =-0.2000 0.2000 0.1000 (   194 PWs)   bands (ev):

    -2.1278  11.4370  13.1004  13.4016  18.3284

          k =-0.2000-0.2000 0.5000 (   192 PWs)   bands (ev):

     0.2238   6.4812   8.6634  13.0474  17.1629

          k =-0.2000 0.7000-0.4000 (   194 PWs)   bands (ev):

     1.6284   4.4926   7.9245  12.7419  17.7156

          k =-0.3000 0.3000 0.1000 (   190 PWs)   bands (ev):

    -1.1538   8.2150  12.0680  12.2938  17.5772

          k =-0.3000 0.2000 0.2000 (   187 PWs)   bands (ev):

    -1.3422   9.5582  10.6490  12.1800  19.2240

          k =-0.3000 0.7000-0.3000 (   197 PWs)   bands (ev):

     3.1209   3.1209   7.1810  12.6800  19.0445

          k =-0.4000 0.4000 0.1000 (   188 PWs)   bands (ev):

     0.1251   5.5236  11.4186  11.5878  16.9710

          k =-0.4000 0.3000 0.2000 (   190 PWs)   bands (ev):

    -0.1811   6.8280   9.4717  11.4553  19.3263

          k = 0.5000-0.5000 0.1000 (   188 PWs)   bands (ev):

     1.0342   4.1366  11.1981  11.3478  16.7525

          k = 0.5000-0.6000 0.2000 (   190 PWs)   bands (ev):

     1.1622   4.5796   8.9653  11.0833  19.1720

          k = 0.5000-0.7000 0.3000 (   187 PWs)   bands (ev):

     1.1581   5.2107   7.7099  11.0288  20.7495

          k = 0.4000-0.6000 0.3000 (   197 PWs)   bands (ev):

     2.3441   3.8157   7.2252  10.8838  20.8750

          k = 0.0000 0.0000 0.3000 (   197 PWs)   bands (ev):

    -2.1212  12.4245  12.4245  14.5795  15.2939

          k = 0.0000-0.1000 0.4000 (   192 PWs)   bands (ev):

    -1.3255   9.8808  11.0062  13.9413  14.8322

          k = 0.0000-0.2000 0.5000 (   190 PWs)   bands (ev):

    -0.1572   6.9973  10.0157  13.2861  15.6781

          k = 0.0000-0.3000 0.6000 (   193 PWs)   bands (ev):

     1.1711   4.7547   9.5128  12.9370  16.7660

          k =-0.1000-0.1000 0.5000 (   195 PWs)   bands (ev):

    -0.3270   8.1829   9.2876  13.9821  14.0271

          k =-0.1000-0.2000 0.6000 (   196 PWs)   bands (ev):

     1.0156   5.8352   8.4063  13.4908  15.0322

          k =-0.1000 0.7000-0.3000 (   200 PWs)   bands (ev):

     2.0725   4.3731   8.1487  13.3091  15.9883

          k =-0.2000 0.8000-0.3000 (   201 PWs)   bands (ev):

     2.4964   4.4017   7.2692  14.1544  15.1992

          k =-0.3000 0.3000 0.3000 (   186 PWs)   bands (ev):

    -0.3622   8.3162   8.3162  10.7448  20.9202

          k = 0.6000-0.6000 0.3000 (   190 PWs)   bands (ev):

     0.9783   5.7165   7.5569  10.2219  22.0408

          k = 0.5000-0.5000 0.3000 (   194 PWs)   bands (ev):

     2.0844   4.1633   7.3023  10.0636  21.9528

          k = 0.5000-0.6000 0.4000 (   192 PWs)   bands (ev):

     2.4850   4.4386   6.0905   9.8459  23.1857

          k = 0.0000 0.0000 0.5000 (   201 PWs)   bands (ev):

    -0.5087   9.5628   9.5628  12.1004  13.8910

          k = 0.0000-0.1000 0.6000 (   197 PWs)   bands (ev):

     0.6993   7.4360   8.5628  11.8882  13.9355

          k = 0.0000-0.2000 0.7000 (   200 PWs)   bands (ev):

     2.1365   5.2098   8.0558  12.1447  14.8557

          k =-0.1000-0.1000 0.7000 (   197 PWs)   bands (ev):

     2.0981   6.1263   7.4514  11.9217  13.8453

          k =-0.1000 0.8000-0.2000 (   200 PWs)   bands (ev):

     3.3570   4.7147   7.0912  12.4347  14.1804

          k = 0.5000-0.5000 0.5000 (   180 PWs)   bands (ev):

     4.1805   4.1805   4.1805   9.5497  25.3353

          k = 0.0000 0.0000 0.7000 (   196 PWs)   bands (ev):

     1.9634   7.5579   7.5579   9.9708  13.4022

          k = 0.0000-0.1000 0.8000 (   200 PWs)   bands (ev):

     3.5333   5.9660   7.0490  10.3268  12.5962

          k =-0.1000 0.9000-0.1000 (   197 PWs)   bands (ev):

     5.0898   5.0898   6.5774  10.8796  10.8796

          k = 0.0000 0.0000 0.9000 (   196 PWs)   bands (ev):

     5.2198   6.5400   6.5400   8.9060  10.1476

     the Fermi energy is     0.7274 ev

!    total energy              =      -0.69488167 Ry
     estimated scf accuracy    <          7.5E-10 Ry
     smearing contrib. (-TS)   =      -0.00007738 Ry
     internal energy E=F+TS    =      -0.69480429 Ry

     The total energy is F=E-TS. E is the sum of the following terms:
     one-electron contribution =       0.43370994 Ry
     hartree contribution      =       0.00115708 Ry
     xc contribution           =      -0.55656363 Ry
     ewald contribution        =      -0.57310767 Ry

     convergence has been achieved in   3 iterations

     Forces acting on atoms (cartesian axes, Ry/au):

     atom    1 type  1   force =     0.00000000    0.00000000    0.00000000

     Total force =     0.000000     Total SCF correction =     0.000000


     Computing stress (Cartesian axis) and pressure

          total   stress  (Ry/bohr**3)                   (kbar)     P=        5.19
   0.00003530   0.00000000   0.00000000            5.19        0.00        0.00
   0.00000000   0.00003530   0.00000000            0.00        5.19        0.00
  -0.00000000   0.00000000   0.00003530           -0.00        0.00        5.19


     Writing all to output data dir ./QE-outdir/li.save/ :
     XML data file, charge density, pseudopotentials, collected wavefunctions

     init_run     :      0.04s CPU      0.06s WALL (       1 calls)
     electrons    :      0.13s CPU      0.21s WALL (       1 calls)
     forces       :      0.00s CPU      0.00s WALL (       1 calls)
     stress       :      0.02s CPU      0.02s WALL (       1 calls)

     Called by init_run:
     wfcinit      :      0.03s CPU      0.04s WALL (       1 calls)
     potinit      :      0.00s CPU      0.00s WALL (       1 calls)
     hinit0       :      0.01s CPU      0.01s WALL (       1 calls)

     Called by electrons:
     c_bands      :      0.11s CPU      0.20s WALL (       4 calls)
     sum_band     :      0.01s CPU      0.01s WALL (       4 calls)
     v_of_rho     :      0.00s CPU      0.00s WALL (       4 calls)
     mix_rho      :      0.00s CPU      0.00s WALL (       4 calls)

     Called by c_bands:
     init_us_2    :      0.01s CPU      0.01s WALL (     484 calls)
     cegterg      :      0.11s CPU      0.19s WALL (     176 calls)

     Called by *egterg:
     cdiaghg      :      0.07s CPU      0.16s WALL (     592 calls)
     h_psi        :      0.05s CPU      0.06s WALL (     680 calls)
     g_psi        :      0.00s CPU      0.00s WALL (     460 calls)

     Called by h_psi:
     h_psi:calbec :      0.00s CPU      0.00s WALL (     680 calls)
     vloc_psi     :      0.05s CPU      0.05s WALL (     680 calls)
                                        0.00s GPU  (     680 calls)
     add_vuspsi   :      0.00s CPU      0.00s WALL (     680 calls)

     General routines
     calbec       :      0.01s CPU      0.01s WALL (    1428 calls)
     fft          :      0.00s CPU      0.00s WALL (      65 calls)
     ffts         :      0.00s CPU      0.00s WALL (       4 calls)
     fftw         :      0.04s CPU      0.04s WALL (    7222 calls)

     Parallel routines

     PWSCF        :      0.20s CPU      0.31s WALL


   This run was terminated on:  14: 5: 3  26Jan2026            

=------------------------------------------------------------------------------=
   JOB DONE.
=------------------------------------------------------------------------------=
