
     Program PWSCF v.7.5 starts on 26Jan2026 at 14: 5: 2 

     This program is part of the open-source Quantum ESPRESSO suite
     for quantum simulation of materials; please cite
         "P. Giannozzi et al., J. Phys.:Condens. Matter 21 395502 (2009);
         "P. Giannozzi et al., J. Phys.:Condens. Matter 29 465901 (2017);
         "P. Giannozzi et al., J. Chem. Phys. 152 154105 (2020);
          URL http://www.quantum-espresso.org", 
     in publications or presentations arising from this work. More details at
     http://www.quantum-espresso.org/quote

     Parallel version (MPI), running on     1 processors

     MPI processes distributed on     1 nodes
     0 MiB available memory on the printing compute node when the environment starts

     Waiting for input...
     Reading input from standard input
     Message from routine read_cards :
     DEPRECATED: no units specified in ATOMIC_POSITIONS card
     Message from routine read_cards :
     ATOMIC_POSITIONS: units set to alat

     Current dimensions of program PWSCF are:
     Max number of different atomic species (ntypx) = 10
     Max number of k-points (npk) =  40000
     Max angular momentum in pseudopotentials (lmaxx) =  4
     file Li.pbe-mt_fhi.UPF: wavefunction(s)  2p 4f renormalized

     Subspace diagonalization in iterative solution of the eigenvalue problem:
     a serial algorithm will be used


     G-vector sticks info
     --------------------
     sticks:   dense  smooth     PW     G-vecs:    dense   smooth      PW
     Sum         173     173     63                 1481     1481     321

     Using Slab Decomposition



     bravais-lattice index     =            3
     lattice parameter (alat)  =       6.2500  a.u.
     unit-cell volume          =     122.0703 (a.u.)^3
     number of atoms/cell      =            1
     number of atomic types    =            1
     number of electrons       =         1.00
     number of Kohn-Sham states=            5
     kinetic-energy cutoff     =      20.0000  Ry
     charge density cutoff     =      80.0000  Ry
     scf convergence threshold =      1.0E-08
     mixing beta               =       0.7000
     number of iterations used =            8  plain     mixing
     Exchange-correlation= PBE
                           (   1   4   3   4   0   0   0)

     celldm(1)=   6.250000  celldm(2)=   0.000000  celldm(3)=   0.000000
     celldm(4)=   0.000000  celldm(5)=   0.000000  celldm(6)=   0.000000

     crystal axes: (cart. coord. in units of alat)
               a(1) = (   0.500000   0.500000   0.500000 )  
               a(2) = (  -0.500000   0.500000   0.500000 )  
               a(3) = (  -0.500000  -0.500000   0.500000 )  

     reciprocal axes: (cart. coord. in units 2 pi/alat)
               b(1) = (  1.000000  0.000000  1.000000 )  
               b(2) = ( -1.000000  1.000000  0.000000 )  
               b(3) = (  0.000000 -1.000000  1.000000 )  


     PseudoPot. # 1 for Li read from file:
     ./pseudopot/Li.pbe-mt_fhi.UPF
     MD5 check sum: 3419f5616d131090147e867976aae79b
     Pseudo is Norm-conserving + core correction, Zval =  1.0
     Generated using FHI98PP, converted with fhi2upf.x v.5.0.2
     Using radial grid of  433 points,  3 beta functions with: 
                l(1) =   0
                l(2) =   1
                l(3) =   3

     atomic species   valence    mass     pseudopotential
     Li                1.00     6.94000     Li( 1.00)

     48 Sym. Ops., with inversion, found



   Cartesian axes

     site n.     atom                  positions (alat units)
         1        Li     tau(   1) = (   0.0000000   0.0000000   0.0000000  )

     number of k points=    44  Methfessel-Paxton smearing, width (Ry)=  0.0100
                       cart. coord. in units 2pi/alat
        k(    1) = (   0.0000000   0.0000000   0.1000000), wk =   0.0120000
        k(    2) = (   0.0000000  -0.1000000   0.2000000), wk =   0.0480000
        k(    3) = (   0.0000000  -0.2000000   0.3000000), wk =   0.0480000
        k(    4) = (   0.0000000  -0.3000000   0.4000000), wk =   0.0480000
        k(    5) = (   0.0000000  -0.4000000   0.5000000), wk =   0.0480000
        k(    6) = (  -0.1000000   0.1000000   0.1000000), wk =   0.0160000
        k(    7) = (  -0.1000000  -0.1000000   0.3000000), wk =   0.0480000
        k(    8) = (  -0.1000000  -0.2000000   0.4000000), wk =   0.0960000
        k(    9) = (  -0.1000000  -0.3000000   0.5000000), wk =   0.0960000
        k(   10) = (  -0.1000000   0.6000000  -0.4000000), wk =   0.0480000
        k(   11) = (  -0.2000000   0.2000000   0.1000000), wk =   0.0480000
        k(   12) = (  -0.2000000  -0.2000000   0.5000000), wk =   0.0480000
        k(   13) = (  -0.2000000   0.7000000  -0.4000000), wk =   0.0960000
        k(   14) = (  -0.3000000   0.3000000   0.1000000), wk =   0.0480000
        k(   15) = (  -0.3000000   0.2000000   0.2000000), wk =   0.0480000
        k(   16) = (  -0.3000000   0.7000000  -0.3000000), wk =   0.0160000
        k(   17) = (  -0.4000000   0.4000000   0.1000000), wk =   0.0480000
        k(   18) = (  -0.4000000   0.3000000   0.2000000), wk =   0.0960000
        k(   19) = (   0.5000000  -0.5000000   0.1000000), wk =   0.0240000
        k(   20) = (   0.5000000  -0.6000000   0.2000000), wk =   0.0960000
        k(   21) = (   0.5000000  -0.7000000   0.3000000), wk =   0.0480000
        k(   22) = (   0.4000000  -0.6000000   0.3000000), wk =   0.0480000
        k(   23) = (   0.0000000   0.0000000   0.3000000), wk =   0.0120000
        k(   24) = (   0.0000000  -0.1000000   0.4000000), wk =   0.0480000
        k(   25) = (   0.0000000  -0.2000000   0.5000000), wk =   0.0480000
        k(   26) = (   0.0000000  -0.3000000   0.6000000), wk =   0.0480000
        k(   27) = (  -0.1000000  -0.1000000   0.5000000), wk =   0.0480000
        k(   28) = (  -0.1000000  -0.2000000   0.6000000), wk =   0.0960000
        k(   29) = (  -0.1000000   0.7000000  -0.3000000), wk =   0.0480000
        k(   30) = (  -0.2000000   0.8000000  -0.3000000), wk =   0.0480000
        k(   31) = (  -0.3000000   0.3000000   0.3000000), wk =   0.0160000
        k(   32) = (   0.6000000  -0.6000000   0.3000000), wk =   0.0480000
        k(   33) = (   0.5000000  -0.5000000   0.3000000), wk =   0.0240000
        k(   34) = (   0.5000000  -0.6000000   0.4000000), wk =   0.0480000
        k(   35) = (   0.0000000   0.0000000   0.5000000), wk =   0.0120000
        k(   36) = (   0.0000000  -0.1000000   0.6000000), wk =   0.0480000
        k(   37) = (   0.0000000  -0.2000000   0.7000000), wk =   0.0480000
        k(   38) = (  -0.1000000  -0.1000000   0.7000000), wk =   0.0480000
        k(   39) = (  -0.1000000   0.8000000  -0.2000000), wk =   0.0480000
        k(   40) = (   0.5000000  -0.5000000   0.5000000), wk =   0.0040000
        k(   41) = (   0.0000000   0.0000000   0.7000000), wk =   0.0120000
        k(   42) = (   0.0000000  -0.1000000   0.8000000), wk =   0.0480000
        k(   43) = (  -0.1000000   0.9000000  -0.1000000), wk =   0.0160000
        k(   44) = (   0.0000000   0.0000000   0.9000000), wk =   0.0120000

     Dense  grid:     1481 G-vectors     FFT dimensions: (  15,  15,  15)

     Estimated max dynamical RAM per process >       1.86 MB

     Initial potential from superposition of free atoms

     starting charge       0.9960, renormalised to       1.0000
     Starting wfcs are   16 randomized atomic wfcs

     total cpu time spent up to now is        0.1 secs

     Self-consistent Calculation

     iteration #  1     ecut=    20.00 Ry     beta= 0.70
     Davidson diagonalization with overlap
     ethr =  1.00E-02,  avg # of iterations =  4.3

     Threshold (ethr) on eigenvalues was too large:
     Diagonalizing with lowered threshold

     Davidson diagonalization with overlap
     ethr =  2.47E-05,  avg # of iterations =  3.9

     total cpu time spent up to now is        0.2 secs

     total energy              =      -0.69451066 Ry
     estimated scf accuracy    <       0.00024688 Ry

     iteration #  2     ecut=    20.00 Ry     beta= 0.70
     Davidson diagonalization with overlap
     ethr =  2.47E-05,  avg # of iterations =  1.1

     total cpu time spent up to now is        0.2 secs

     total energy              =      -0.69450867 Ry
     estimated scf accuracy    <       0.00002176 Ry

     iteration #  3     ecut=    20.00 Ry     beta= 0.70
     Davidson diagonalization with overlap
     ethr =  2.18E-06,  avg # of iterations =  1.2

     total cpu time spent up to now is        0.3 secs

     End of self-consistent calculation

          k = 0.0000 0.0000 0.1000 (   185 PWs)   bands (ev):

    -2.8412  15.9738  15.9739  16.2878  20.2552

          k = 0.0000-0.1000 0.2000 (   185 PWs)   bands (ev):

    -2.4409  13.5729  14.5293  15.6987  18.4787

          k = 0.0000-0.2000 0.3000 (   186 PWs)   bands (ev):

    -1.6424  10.1965  13.1217  14.7999  17.6819

          k = 0.0000-0.3000 0.4000 (   182 PWs)   bands (ev):

    -0.4775   7.1260  12.1245  14.0182  16.6066

          k = 0.0000-0.4000 0.5000 (   183 PWs)   bands (ev):

     0.8046   4.8625  11.6156  13.5909  16.0661

          k =-0.1000 0.1000 0.1000 (   189 PWs)   bands (ev):

    -2.6416  14.9233  15.2673  15.2673  19.5533

          k =-0.1000-0.1000 0.3000 (   186 PWs)   bands (ev):

    -1.8381  11.6540  12.3437  14.9517  17.5348

          k =-0.1000-0.2000 0.4000 (   181 PWs)   bands (ev):

    -0.8403   8.6303  11.0245  14.1013  17.5603

          k =-0.1000-0.3000 0.5000 (   183 PWs)   bands (ev):

     0.4768   5.9095  10.2919  13.4680  17.6602

          k =-0.1000 0.6000-0.4000 (   188 PWs)   bands (ev):

     1.4276   4.4776  10.0474  13.2429  17.6044

          k =-0.2000 0.2000 0.1000 (   183 PWs)   bands (ev):

    -2.0422  11.9217  13.6579  13.9417  19.0246

          k =-0.2000-0.2000 0.5000 (   181 PWs)   bands (ev):

     0.3528   6.7849   9.1066  13.5852  17.8106

          k =-0.2000 0.7000-0.4000 (   184 PWs)   bands (ev):

     1.7818   4.7456   8.3509  13.2689  18.3911

          k =-0.3000 0.3000 0.1000 (   179 PWs)   bands (ev):

    -1.0518   8.6015  12.5939  12.7928  18.2445

          k =-0.3000 0.2000 0.2000 (   182 PWs)   bands (ev):

    -1.2431   9.9639  11.1230  12.7078  19.9646

          k =-0.3000 0.7000-0.3000 (   185 PWs)   bands (ev):

     3.3140   3.3140   7.6085  13.2076  19.7533

          k =-0.4000 0.4000 0.1000 (   183 PWs)   bands (ev):

     0.2458   5.8405  11.9236  12.0612  17.6151

          k =-0.4000 0.3000 0.2000 (   181 PWs)   bands (ev):

    -0.0613   7.1573   9.9032  11.9695  20.0691

          k = 0.5000-0.5000 0.1000 (   188 PWs)   bands (ev):

     1.1586   4.4326  11.6956  11.8126  17.3886

          k = 0.5000-0.6000 0.2000 (   182 PWs)   bands (ev):

     1.3009   4.8586   9.3779  11.5898  19.9078

          k = 0.5000-0.7000 0.3000 (   181 PWs)   bands (ev):

     1.3047   5.4718   8.1107  11.5415  21.5226

          k = 0.4000-0.6000 0.3000 (   179 PWs)   bands (ev):

     2.5119   4.0423   7.6161  11.3967  21.6727

          k = 0.0000 0.0000 0.3000 (   177 PWs)   bands (ev):

    -2.0350  12.9410  12.9410  15.2070  15.8642

          k = 0.0000-0.1000 0.4000 (   185 PWs)   bands (ev):

    -1.2248  10.3116  11.4717  14.5290  15.4175

          k = 0.0000-0.2000 0.5000 (   185 PWs)   bands (ev):

    -0.0352   7.3443  10.4473  13.8581  16.2898

          k = 0.0000-0.3000 0.6000 (   183 PWs)   bands (ev):

     1.3106   5.0518   9.9282  13.5006  17.4176

          k =-0.1000-0.1000 0.5000 (   182 PWs)   bands (ev):

    -0.2064   8.5455   9.7181  14.5206  14.6396

          k =-0.1000-0.2000 0.6000 (   184 PWs)   bands (ev):

     1.1620   6.1333   8.8134  14.0630  15.6239

          k =-0.1000 0.7000-0.3000 (   181 PWs)   bands (ev):

     2.2318   4.6454   8.5477  13.8780  16.6122

          k =-0.2000 0.8000-0.3000 (   191 PWs)   bands (ev):

     2.6758   4.6369   7.6761  14.7545  15.7793

          k =-0.3000 0.3000 0.3000 (   183 PWs)   bands (ev):

    -0.2450   8.6795   8.6795  11.2854  21.7190

          k = 0.6000-0.6000 0.3000 (   182 PWs)   bands (ev):

     1.1215   6.0040   7.8949  10.7626  22.8782

          k = 0.5000-0.5000 0.3000 (   176 PWs)   bands (ev):

     2.2438   4.4186   7.6320  10.6047  22.7832

          k = 0.5000-0.6000 0.4000 (   184 PWs)   bands (ev):

     2.6630   4.6742   6.3927  10.3960  24.0700

          k = 0.0000 0.0000 0.5000 (   184 PWs)   bands (ev):

    -0.3904   9.9797   9.9797  12.5677  14.5309

          k = 0.0000-0.1000 0.6000 (   188 PWs)   bands (ev):

     0.8435   7.7842   8.9450  12.3647  14.5732

          k = 0.0000-0.2000 0.7000 (   195 PWs)   bands (ev):

     2.3071   5.5018   8.4211  12.6684  15.4813

          k =-0.1000-0.1000 0.7000 (   193 PWs)   bands (ev):

     2.2747   6.4202   7.8198  12.3920  14.4748

          k =-0.1000 0.8000-0.2000 (   192 PWs)   bands (ev):

     3.5583   4.9735   7.4548  12.9397  14.7269

          k = 0.5000-0.5000 0.5000 (   180 PWs)   bands (ev):

     4.4073   4.4073   4.4073  10.1152  26.2937

          k = 0.0000 0.0000 0.7000 (   188 PWs)   bands (ev):

     2.1403   7.9067   7.9067  10.3694  14.0309

          k = 0.0000-0.1000 0.8000 (   188 PWs)   bands (ev):

     3.7490   6.2662   7.3812  10.7488  13.1141

          k =-0.1000 0.9000-0.1000 (   188 PWs)   bands (ev):

     5.3495   5.3495   6.9113  11.3160  11.3160

          k = 0.0000 0.0000 0.9000 (   188 PWs)   bands (ev):

     5.4893   6.8544   6.8544   9.2701  10.5621

     the Fermi energy is     0.8619 ev

!    total energy              =      -0.69450874 Ry
     estimated scf accuracy    <          7.2E-10 Ry
     smearing contrib. (-TS)   =      -0.00007707 Ry
     internal energy E=F+TS    =      -0.69443167 Ry

     The total energy is F=E-TS. E is the sum of the following terms:
     one-electron contribution =       0.44927500 Ry
     hartree contribution      =       0.00123940 Ry
     xc contribution           =      -0.56266870 Ry
     ewald contribution        =      -0.58227738 Ry

     convergence has been achieved in   3 iterations

     Forces acting on atoms (cartesian axes, Ry/au):

     atom    1 type  1   force =     0.00000000    0.00000000    0.00000000

     Total force =     0.000000     Total SCF correction =     0.000000


     Computing stress (Cartesian axis) and pressure

          total   stress  (Ry/bohr**3)                   (kbar)     P=       13.01
   0.00008846  -0.00000000   0.00000000           13.01       -0.00        0.00
  -0.00000000   0.00008846  -0.00000000           -0.00       13.01       -0.00
   0.00000000  -0.00000000   0.00008846            0.00       -0.00       13.01


     Writing all to output data dir ./QE-outdir/li.save/ :
     XML data file, charge density, pseudopotentials, collected wavefunctions

     init_run     :      0.04s CPU      0.06s WALL (       1 calls)
     electrons    :      0.13s CPU      0.21s WALL (       1 calls)
     forces       :      0.00s CPU      0.00s WALL (       1 calls)
     stress       :      0.02s CPU      0.02s WALL (       1 calls)

     Called by init_run:
     wfcinit      :      0.03s CPU      0.04s WALL (       1 calls)
     potinit      :      0.00s CPU      0.00s WALL (       1 calls)
     hinit0       :      0.01s CPU      0.01s WALL (       1 calls)

     Called by electrons:
     c_bands      :      0.11s CPU      0.20s WALL (       4 calls)
     sum_band     :      0.01s CPU      0.01s WALL (       4 calls)
     v_of_rho     :      0.00s CPU      0.00s WALL (       4 calls)
     mix_rho      :      0.00s CPU      0.00s WALL (       4 calls)

     Called by c_bands:
     init_us_2    :      0.01s CPU      0.01s WALL (     484 calls)
     cegterg      :      0.11s CPU      0.19s WALL (     176 calls)

     Called by *egterg:
     cdiaghg      :      0.07s CPU      0.16s WALL (     592 calls)
     h_psi        :      0.05s CPU      0.05s WALL (     680 calls)
     g_psi        :      0.00s CPU      0.00s WALL (     460 calls)

     Called by h_psi:
     h_psi:calbec :      0.00s CPU      0.00s WALL (     680 calls)
     vloc_psi     :      0.05s CPU      0.05s WALL (     680 calls)
                                        0.00s GPU  (     680 calls)
     add_vuspsi   :      0.00s CPU      0.00s WALL (     680 calls)

     General routines
     calbec       :      0.01s CPU      0.01s WALL (    1428 calls)
     fft          :      0.00s CPU      0.00s WALL (      65 calls)
     ffts         :      0.00s CPU      0.00s WALL (       4 calls)
     fftw         :      0.04s CPU      0.04s WALL (    7196 calls)

     Parallel routines

     PWSCF        :      0.20s CPU      0.30s WALL


   This run was terminated on:  14: 5: 2  26Jan2026            

=------------------------------------------------------------------------------=
   JOB DONE.
=------------------------------------------------------------------------------=
