
     Program PWSCF v.7.5 starts on 31Jan2026 at 23:33:16 

     This program is part of the open-source Quantum ESPRESSO suite
     for quantum simulation of materials; please cite
         "P. Giannozzi et al., J. Phys.:Condens. Matter 21 395502 (2009);
         "P. Giannozzi et al., J. Phys.:Condens. Matter 29 465901 (2017);
         "P. Giannozzi et al., J. Chem. Phys. 152 154105 (2020);
          URL http://www.quantum-espresso.org", 
     in publications or presentations arising from this work. More details at
     http://www.quantum-espresso.org/quote

     Parallel version (MPI), running on     1 processors

     MPI processes distributed on     1 nodes
     0 MiB available memory on the printing compute node when the environment starts

     Waiting for input...
     Reading input from standard input
     Message from routine read_cards :
     DEPRECATED: no units specified in ATOMIC_POSITIONS card
     Message from routine read_cards :
     ATOMIC_POSITIONS: units set to alat

     Current dimensions of program PWSCF are:
     Max number of different atomic species (ntypx) = 10
     Max number of k-points (npk) =  40000
     Max angular momentum in pseudopotentials (lmaxx) =  4
     file Li.pbe-mt_fhi.UPF: wavefunction(s)  2p 4f renormalized

     Subspace diagonalization in iterative solution of the eigenvalue problem:
     a serial algorithm will be used


     G-vector sticks info
     --------------------
     sticks:   dense  smooth     PW     G-vecs:    dense   smooth      PW
     Sum         173     173     63                 1481     1481     321

     Using Slab Decomposition



     bravais-lattice index     =            3
     lattice parameter (alat)  =       6.2200  a.u.
     unit-cell volume          =     120.3209 (a.u.)^3
     number of atoms/cell      =            1
     number of atomic types    =            1
     number of electrons       =         1.00
     number of Kohn-Sham states=            5
     kinetic-energy cutoff     =      20.0000  Ry
     charge density cutoff     =      80.0000  Ry
     scf convergence threshold =      1.0E-08
     mixing beta               =       0.7000
     number of iterations used =            8  plain     mixing
     Exchange-correlation= PBE
                           (   1   4   3   4   0   0   0)

     celldm(1)=   6.220000  celldm(2)=   0.000000  celldm(3)=   0.000000
     celldm(4)=   0.000000  celldm(5)=   0.000000  celldm(6)=   0.000000

     crystal axes: (cart. coord. in units of alat)
               a(1) = (   0.500000   0.500000   0.500000 )  
               a(2) = (  -0.500000   0.500000   0.500000 )  
               a(3) = (  -0.500000  -0.500000   0.500000 )  

     reciprocal axes: (cart. coord. in units 2 pi/alat)
               b(1) = (  1.000000  0.000000  1.000000 )  
               b(2) = ( -1.000000  1.000000  0.000000 )  
               b(3) = (  0.000000 -1.000000  1.000000 )  


     PseudoPot. # 1 for Li read from file:
     ./pseudopot/Li.pbe-mt_fhi.UPF
     MD5 check sum: 3419f5616d131090147e867976aae79b
     Pseudo is Norm-conserving + core correction, Zval =  1.0
     Generated using FHI98PP, converted with fhi2upf.x v.5.0.2
     Using radial grid of  433 points,  3 beta functions with: 
                l(1) =   0
                l(2) =   1
                l(3) =   3

     atomic species   valence    mass     pseudopotential
     Li                1.00     6.94000     Li( 1.00)

     48 Sym. Ops., with inversion, found



   Cartesian axes

     site n.     atom                  positions (alat units)
         1        Li     tau(   1) = (   0.0000000   0.0000000   0.0000000  )

     number of k points=    44  Methfessel-Paxton smearing, width (Ry)=  0.0100
                       cart. coord. in units 2pi/alat
        k(    1) = (   0.0000000   0.0000000   0.1000000), wk =   0.0120000
        k(    2) = (   0.0000000  -0.1000000   0.2000000), wk =   0.0480000
        k(    3) = (   0.0000000  -0.2000000   0.3000000), wk =   0.0480000
        k(    4) = (   0.0000000  -0.3000000   0.4000000), wk =   0.0480000
        k(    5) = (   0.0000000  -0.4000000   0.5000000), wk =   0.0480000
        k(    6) = (  -0.1000000   0.1000000   0.1000000), wk =   0.0160000
        k(    7) = (  -0.1000000  -0.1000000   0.3000000), wk =   0.0480000
        k(    8) = (  -0.1000000  -0.2000000   0.4000000), wk =   0.0960000
        k(    9) = (  -0.1000000  -0.3000000   0.5000000), wk =   0.0960000
        k(   10) = (  -0.1000000   0.6000000  -0.4000000), wk =   0.0480000
        k(   11) = (  -0.2000000   0.2000000   0.1000000), wk =   0.0480000
        k(   12) = (  -0.2000000  -0.2000000   0.5000000), wk =   0.0480000
        k(   13) = (  -0.2000000   0.7000000  -0.4000000), wk =   0.0960000
        k(   14) = (  -0.3000000   0.3000000   0.1000000), wk =   0.0480000
        k(   15) = (  -0.3000000   0.2000000   0.2000000), wk =   0.0480000
        k(   16) = (  -0.3000000   0.7000000  -0.3000000), wk =   0.0160000
        k(   17) = (  -0.4000000   0.4000000   0.1000000), wk =   0.0480000
        k(   18) = (  -0.4000000   0.3000000   0.2000000), wk =   0.0960000
        k(   19) = (   0.5000000  -0.5000000   0.1000000), wk =   0.0240000
        k(   20) = (   0.5000000  -0.6000000   0.2000000), wk =   0.0960000
        k(   21) = (   0.5000000  -0.7000000   0.3000000), wk =   0.0480000
        k(   22) = (   0.4000000  -0.6000000   0.3000000), wk =   0.0480000
        k(   23) = (   0.0000000   0.0000000   0.3000000), wk =   0.0120000
        k(   24) = (   0.0000000  -0.1000000   0.4000000), wk =   0.0480000
        k(   25) = (   0.0000000  -0.2000000   0.5000000), wk =   0.0480000
        k(   26) = (   0.0000000  -0.3000000   0.6000000), wk =   0.0480000
        k(   27) = (  -0.1000000  -0.1000000   0.5000000), wk =   0.0480000
        k(   28) = (  -0.1000000  -0.2000000   0.6000000), wk =   0.0960000
        k(   29) = (  -0.1000000   0.7000000  -0.3000000), wk =   0.0480000
        k(   30) = (  -0.2000000   0.8000000  -0.3000000), wk =   0.0480000
        k(   31) = (  -0.3000000   0.3000000   0.3000000), wk =   0.0160000
        k(   32) = (   0.6000000  -0.6000000   0.3000000), wk =   0.0480000
        k(   33) = (   0.5000000  -0.5000000   0.3000000), wk =   0.0240000
        k(   34) = (   0.5000000  -0.6000000   0.4000000), wk =   0.0480000
        k(   35) = (   0.0000000   0.0000000   0.5000000), wk =   0.0120000
        k(   36) = (   0.0000000  -0.1000000   0.6000000), wk =   0.0480000
        k(   37) = (   0.0000000  -0.2000000   0.7000000), wk =   0.0480000
        k(   38) = (  -0.1000000  -0.1000000   0.7000000), wk =   0.0480000
        k(   39) = (  -0.1000000   0.8000000  -0.2000000), wk =   0.0480000
        k(   40) = (   0.5000000  -0.5000000   0.5000000), wk =   0.0040000
        k(   41) = (   0.0000000   0.0000000   0.7000000), wk =   0.0120000
        k(   42) = (   0.0000000  -0.1000000   0.8000000), wk =   0.0480000
        k(   43) = (  -0.1000000   0.9000000  -0.1000000), wk =   0.0160000
        k(   44) = (   0.0000000   0.0000000   0.9000000), wk =   0.0120000

     Dense  grid:     1481 G-vectors     FFT dimensions: (  15,  15,  15)

     Estimated max dynamical RAM per process >       1.85 MB

     Initial potential from superposition of free atoms

     starting charge       0.9960, renormalised to       1.0000
     Starting wfcs are   16 randomized atomic wfcs

     total cpu time spent up to now is        0.1 secs

     Self-consistent Calculation

     iteration #  1     ecut=    20.00 Ry     beta= 0.70
     Davidson diagonalization with overlap
     ethr =  1.00E-02,  avg # of iterations =  4.3

     Threshold (ethr) on eigenvalues was too large:
     Diagonalizing with lowered threshold

     Davidson diagonalization with overlap
     ethr =  2.54E-05,  avg # of iterations =  3.8

     total cpu time spent up to now is        0.2 secs

     total energy              =      -0.69433921 Ry
     estimated scf accuracy    <       0.00025455 Ry

     iteration #  2     ecut=    20.00 Ry     beta= 0.70
     Davidson diagonalization with overlap
     ethr =  2.55E-05,  avg # of iterations =  1.0

     total cpu time spent up to now is        0.2 secs

     total energy              =      -0.69433712 Ry
     estimated scf accuracy    <       0.00002238 Ry

     iteration #  3     ecut=    20.00 Ry     beta= 0.70
     Davidson diagonalization with overlap
     ethr =  2.24E-06,  avg # of iterations =  1.5

     total cpu time spent up to now is        0.3 secs

     End of self-consistent calculation

          k = 0.0000 0.0000 0.1000 (   181 PWs)   bands (ev):

    -2.8178  16.1688  16.1688  16.4876  20.4743

          k = 0.0000-0.1000 0.2000 (   183 PWs)   bands (ev):

    -2.4156  13.7404  14.7072  15.8902  18.6851

          k = 0.0000-0.2000 0.3000 (   183 PWs)   bands (ev):

    -1.6133  10.3316  13.2844  14.9801  17.8794

          k = 0.0000-0.3000 0.4000 (   180 PWs)   bands (ev):

    -0.4428   7.2348  12.2771  14.1890  16.7937

          k = 0.0000-0.4000 0.5000 (   182 PWs)   bands (ev):

     0.8429   4.9572  11.7624  13.7570  16.2478

          k =-0.1000 0.1000 0.1000 (   183 PWs)   bands (ev):

    -2.6173  15.1090  15.4521  15.4521  19.7727

          k =-0.1000-0.1000 0.3000 (   179 PWs)   bands (ev):

    -1.8098  11.7981  12.5038  15.1350  17.7326

          k =-0.1000-0.2000 0.4000 (   180 PWs)   bands (ev):

    -0.8068   8.7475  11.1706  14.2732  17.7603

          k =-0.1000-0.3000 0.5000 (   183 PWs)   bands (ev):

     0.5164   6.0058  10.4307  13.6325  17.8654

          k =-0.1000 0.6000-0.4000 (   180 PWs)   bands (ev):

     1.4689   4.5673  10.1844  13.4057  17.8101

          k =-0.2000 0.2000 0.1000 (   182 PWs)   bands (ev):

    -2.0151  12.0715  13.8305  14.1087  19.2400

          k =-0.2000-0.2000 0.5000 (   179 PWs)   bands (ev):

     0.3930   6.8790   9.2441  13.7515  18.0114

          k =-0.2000 0.7000-0.4000 (   182 PWs)   bands (ev):

     1.8295   4.8239   8.4833  13.4322  18.6004

          k =-0.3000 0.3000 0.1000 (   179 PWs)   bands (ev):

    -1.0198   8.7210  12.7564  12.9471  18.4509

          k =-0.3000 0.2000 0.2000 (   179 PWs)   bands (ev):

    -1.2119  10.0895  11.2696  12.8719  20.1945

          k =-0.3000 0.7000-0.3000 (   185 PWs)   bands (ev):

     3.3737   3.3737   7.7412  13.3707  19.9723

          k =-0.4000 0.4000 0.1000 (   183 PWs)   bands (ev):

     0.2834   5.9389  12.0799  12.2077  17.8145

          k =-0.4000 0.3000 0.2000 (   180 PWs)   bands (ev):

    -0.0239   7.2591  10.0367  12.1291  20.3001

          k = 0.5000-0.5000 0.1000 (   182 PWs)   bands (ev):

     1.1976   4.5247  11.8504  11.9565  17.5856

          k = 0.5000-0.6000 0.2000 (   178 PWs)   bands (ev):

     1.3441   4.9452   9.5057  11.7470  20.1354

          k = 0.5000-0.7000 0.3000 (   179 PWs)   bands (ev):

     1.3502   5.5526   8.2348  11.7010  21.7619

          k = 0.4000-0.6000 0.3000 (   177 PWs)   bands (ev):

     2.5638   4.1125   7.7370  11.5559  21.9189

          k = 0.0000 0.0000 0.3000 (   177 PWs)   bands (ev):

    -2.0077  13.1001  13.1001  15.4006  16.0408

          k = 0.0000-0.1000 0.4000 (   181 PWs)   bands (ev):

    -1.1930  10.4451  11.6161  14.7103  15.5992

          k = 0.0000-0.2000 0.5000 (   183 PWs)   bands (ev):

     0.0029   7.4518  10.5813  14.0351  16.4790

          k = 0.0000-0.3000 0.6000 (   179 PWs)   bands (ev):

     1.3539   5.1443  10.0566  13.6752  17.6202

          k =-0.1000-0.1000 0.5000 (   182 PWs)   bands (ev):

    -0.1687   8.6574   9.8514  14.6871  14.8289

          k =-0.1000-0.2000 0.6000 (   182 PWs)   bands (ev):

     1.2074   6.2256   8.9394  14.2399  15.8078

          k =-0.1000 0.7000-0.3000 (   181 PWs)   bands (ev):

     2.2809   4.7297   8.6712  14.0538  16.8048

          k =-0.2000 0.8000-0.3000 (   187 PWs)   bands (ev):

     2.7313   4.7102   7.8024  14.9400  15.9593

          k =-0.3000 0.3000 0.3000 (   183 PWs)   bands (ev):

    -0.2084   8.7920   8.7920  11.4532  21.9662

          k = 0.6000-0.6000 0.3000 (   178 PWs)   bands (ev):

     1.1661   6.0931   7.9997  10.9306  23.1387

          k = 0.5000-0.5000 0.3000 (   176 PWs)   bands (ev):

     2.2930   4.4976   7.7339  10.7726  23.0399

          k = 0.5000-0.6000 0.4000 (   179 PWs)   bands (ev):

     2.7183   4.7472   6.4863  10.5672  24.3443

          k = 0.0000 0.0000 0.5000 (   184 PWs)   bands (ev):

    -0.3534  10.1083  10.1083  12.7124  14.7288

          k = 0.0000-0.1000 0.6000 (   186 PWs)   bands (ev):

     0.8885   7.8920   9.0636  12.5121  14.7706

          k = 0.0000-0.2000 0.7000 (   187 PWs)   bands (ev):

     2.3602   5.5925   8.5348  12.8305  15.6759

          k =-0.1000-0.1000 0.7000 (   187 PWs)   bands (ev):

     2.3296   6.5114   7.9340  12.5378  14.6701

          k =-0.1000 0.8000-0.2000 (   192 PWs)   bands (ev):

     3.6206   5.0535   7.5673  13.0959  14.8960

          k = 0.5000-0.5000 0.5000 (   180 PWs)   bands (ev):

     4.4776   4.4776   4.4776  10.2911  26.5907

          k = 0.0000 0.0000 0.7000 (   184 PWs)   bands (ev):

     2.1952   8.0149   8.0149  10.4928  14.2253

          k = 0.0000-0.1000 0.8000 (   184 PWs)   bands (ev):

     3.8160   6.3591   7.4839  10.8794  13.2742

          k =-0.1000 0.9000-0.1000 (   182 PWs)   bands (ev):

     5.4300   5.4300   7.0154  11.4511  11.4511

          k = 0.0000 0.0000 0.9000 (   180 PWs)   bands (ev):

     5.5729   6.9522   6.9522   9.3829  10.6906

     the Fermi energy is     0.9039 ev

!    total energy              =      -0.69433719 Ry
     estimated scf accuracy    <          7.5E-10 Ry
     smearing contrib. (-TS)   =      -0.00007584 Ry
     internal energy E=F+TS    =      -0.69426134 Ry

     The total energy is F=E-TS. E is the sum of the following terms:
     one-electron contribution =       0.45410420 Ry
     hartree contribution      =       0.00126452 Ry
     xc contribution           =      -0.56454428 Ry
     ewald contribution        =      -0.58508579 Ry

     convergence has been achieved in   3 iterations

     Forces acting on atoms (cartesian axes, Ry/au):

     atom    1 type  1   force =     0.00000000    0.00000000    0.00000000

     Total force =     0.000000     Total SCF correction =     0.000000


     Computing stress (Cartesian axis) and pressure

          total   stress  (Ry/bohr**3)                   (kbar)     P=       15.62
   0.00010621  -0.00000000   0.00000000           15.62       -0.00        0.00
  -0.00000000   0.00010621  -0.00000000           -0.00       15.62       -0.00
   0.00000000  -0.00000000   0.00010621            0.00       -0.00       15.62


     Writing all to output data dir ./QE-outdir/li.save/ :
     XML data file, charge density, pseudopotentials, collected wavefunctions

     init_run     :      0.04s CPU      0.05s WALL (       1 calls)
     electrons    :      0.12s CPU      0.21s WALL (       1 calls)
     forces       :      0.00s CPU      0.00s WALL (       1 calls)
     stress       :      0.02s CPU      0.02s WALL (       1 calls)

     Called by init_run:
     wfcinit      :      0.03s CPU      0.04s WALL (       1 calls)
     potinit      :      0.00s CPU      0.00s WALL (       1 calls)
     hinit0       :      0.01s CPU      0.01s WALL (       1 calls)

     Called by electrons:
     c_bands      :      0.11s CPU      0.20s WALL (       4 calls)
     sum_band     :      0.01s CPU      0.01s WALL (       4 calls)
     v_of_rho     :      0.00s CPU      0.00s WALL (       4 calls)
     mix_rho      :      0.00s CPU      0.00s WALL (       4 calls)

     Called by c_bands:
     init_us_2    :      0.01s CPU      0.01s WALL (     484 calls)
     cegterg      :      0.11s CPU      0.19s WALL (     176 calls)

     Called by *egterg:
     cdiaghg      :      0.07s CPU      0.16s WALL (     597 calls)
     h_psi        :      0.05s CPU      0.05s WALL (     685 calls)
     g_psi        :      0.00s CPU      0.00s WALL (     465 calls)

     Called by h_psi:
     h_psi:calbec :      0.00s CPU      0.00s WALL (     685 calls)
     vloc_psi     :      0.05s CPU      0.05s WALL (     685 calls)
                                        0.00s GPU  (     685 calls)
     add_vuspsi   :      0.00s CPU      0.00s WALL (     685 calls)

     General routines
     calbec       :      0.01s CPU      0.01s WALL (    1433 calls)
     fft          :      0.00s CPU      0.00s WALL (      65 calls)
     ffts         :      0.00s CPU      0.00s WALL (       4 calls)
     fftw         :      0.04s CPU      0.04s WALL (    7210 calls)

     Parallel routines

     PWSCF        :      0.20s CPU      0.30s WALL


   This run was terminated on:  23:33:17  31Jan2026            

=------------------------------------------------------------------------------=
   JOB DONE.
=------------------------------------------------------------------------------=
