
     Program PWSCF v.7.5 starts on 26Jan2026 at 14: 5: 1 

     This program is part of the open-source Quantum ESPRESSO suite
     for quantum simulation of materials; please cite
         "P. Giannozzi et al., J. Phys.:Condens. Matter 21 395502 (2009);
         "P. Giannozzi et al., J. Phys.:Condens. Matter 29 465901 (2017);
         "P. Giannozzi et al., J. Chem. Phys. 152 154105 (2020);
          URL http://www.quantum-espresso.org", 
     in publications or presentations arising from this work. More details at
     http://www.quantum-espresso.org/quote

     Parallel version (MPI), running on     1 processors

     MPI processes distributed on     1 nodes
     0 MiB available memory on the printing compute node when the environment starts

     Waiting for input...
     Reading input from standard input
     Message from routine read_cards :
     DEPRECATED: no units specified in ATOMIC_POSITIONS card
     Message from routine read_cards :
     ATOMIC_POSITIONS: units set to alat

     Current dimensions of program PWSCF are:
     Max number of different atomic species (ntypx) = 10
     Max number of k-points (npk) =  40000
     Max angular momentum in pseudopotentials (lmaxx) =  4
     file Li.pbe-mt_fhi.UPF: wavefunction(s)  2p 4f renormalized

     Subspace diagonalization in iterative solution of the eigenvalue problem:
     a serial algorithm will be used


     G-vector sticks info
     --------------------
     sticks:   dense  smooth     PW     G-vecs:    dense   smooth      PW
     Sum         169     169     63                 1409     1409     321

     Using Slab Decomposition



     bravais-lattice index     =            3
     lattice parameter (alat)  =       6.1000  a.u.
     unit-cell volume          =     113.4905 (a.u.)^3
     number of atoms/cell      =            1
     number of atomic types    =            1
     number of electrons       =         1.00
     number of Kohn-Sham states=            5
     kinetic-energy cutoff     =      20.0000  Ry
     charge density cutoff     =      80.0000  Ry
     scf convergence threshold =      1.0E-08
     mixing beta               =       0.7000
     number of iterations used =            8  plain     mixing
     Exchange-correlation= PBE
                           (   1   4   3   4   0   0   0)

     celldm(1)=   6.100000  celldm(2)=   0.000000  celldm(3)=   0.000000
     celldm(4)=   0.000000  celldm(5)=   0.000000  celldm(6)=   0.000000

     crystal axes: (cart. coord. in units of alat)
               a(1) = (   0.500000   0.500000   0.500000 )  
               a(2) = (  -0.500000   0.500000   0.500000 )  
               a(3) = (  -0.500000  -0.500000   0.500000 )  

     reciprocal axes: (cart. coord. in units 2 pi/alat)
               b(1) = (  1.000000  0.000000  1.000000 )  
               b(2) = ( -1.000000  1.000000  0.000000 )  
               b(3) = (  0.000000 -1.000000  1.000000 )  


     PseudoPot. # 1 for Li read from file:
     ./pseudopot/Li.pbe-mt_fhi.UPF
     MD5 check sum: 3419f5616d131090147e867976aae79b
     Pseudo is Norm-conserving + core correction, Zval =  1.0
     Generated using FHI98PP, converted with fhi2upf.x v.5.0.2
     Using radial grid of  433 points,  3 beta functions with: 
                l(1) =   0
                l(2) =   1
                l(3) =   3

     atomic species   valence    mass     pseudopotential
     Li                1.00     6.94000     Li( 1.00)

     48 Sym. Ops., with inversion, found



   Cartesian axes

     site n.     atom                  positions (alat units)
         1        Li     tau(   1) = (   0.0000000   0.0000000   0.0000000  )

     number of k points=    44  Methfessel-Paxton smearing, width (Ry)=  0.0100
                       cart. coord. in units 2pi/alat
        k(    1) = (   0.0000000   0.0000000   0.1000000), wk =   0.0120000
        k(    2) = (   0.0000000  -0.1000000   0.2000000), wk =   0.0480000
        k(    3) = (   0.0000000  -0.2000000   0.3000000), wk =   0.0480000
        k(    4) = (   0.0000000  -0.3000000   0.4000000), wk =   0.0480000
        k(    5) = (   0.0000000  -0.4000000   0.5000000), wk =   0.0480000
        k(    6) = (  -0.1000000   0.1000000   0.1000000), wk =   0.0160000
        k(    7) = (  -0.1000000  -0.1000000   0.3000000), wk =   0.0480000
        k(    8) = (  -0.1000000  -0.2000000   0.4000000), wk =   0.0960000
        k(    9) = (  -0.1000000  -0.3000000   0.5000000), wk =   0.0960000
        k(   10) = (  -0.1000000   0.6000000  -0.4000000), wk =   0.0480000
        k(   11) = (  -0.2000000   0.2000000   0.1000000), wk =   0.0480000
        k(   12) = (  -0.2000000  -0.2000000   0.5000000), wk =   0.0480000
        k(   13) = (  -0.2000000   0.7000000  -0.4000000), wk =   0.0960000
        k(   14) = (  -0.3000000   0.3000000   0.1000000), wk =   0.0480000
        k(   15) = (  -0.3000000   0.2000000   0.2000000), wk =   0.0480000
        k(   16) = (  -0.3000000   0.7000000  -0.3000000), wk =   0.0160000
        k(   17) = (  -0.4000000   0.4000000   0.1000000), wk =   0.0480000
        k(   18) = (  -0.4000000   0.3000000   0.2000000), wk =   0.0960000
        k(   19) = (   0.5000000  -0.5000000   0.1000000), wk =   0.0240000
        k(   20) = (   0.5000000  -0.6000000   0.2000000), wk =   0.0960000
        k(   21) = (   0.5000000  -0.7000000   0.3000000), wk =   0.0480000
        k(   22) = (   0.4000000  -0.6000000   0.3000000), wk =   0.0480000
        k(   23) = (   0.0000000   0.0000000   0.3000000), wk =   0.0120000
        k(   24) = (   0.0000000  -0.1000000   0.4000000), wk =   0.0480000
        k(   25) = (   0.0000000  -0.2000000   0.5000000), wk =   0.0480000
        k(   26) = (   0.0000000  -0.3000000   0.6000000), wk =   0.0480000
        k(   27) = (  -0.1000000  -0.1000000   0.5000000), wk =   0.0480000
        k(   28) = (  -0.1000000  -0.2000000   0.6000000), wk =   0.0960000
        k(   29) = (  -0.1000000   0.7000000  -0.3000000), wk =   0.0480000
        k(   30) = (  -0.2000000   0.8000000  -0.3000000), wk =   0.0480000
        k(   31) = (  -0.3000000   0.3000000   0.3000000), wk =   0.0160000
        k(   32) = (   0.6000000  -0.6000000   0.3000000), wk =   0.0480000
        k(   33) = (   0.5000000  -0.5000000   0.3000000), wk =   0.0240000
        k(   34) = (   0.5000000  -0.6000000   0.4000000), wk =   0.0480000
        k(   35) = (   0.0000000   0.0000000   0.5000000), wk =   0.0120000
        k(   36) = (   0.0000000  -0.1000000   0.6000000), wk =   0.0480000
        k(   37) = (   0.0000000  -0.2000000   0.7000000), wk =   0.0480000
        k(   38) = (  -0.1000000  -0.1000000   0.7000000), wk =   0.0480000
        k(   39) = (  -0.1000000   0.8000000  -0.2000000), wk =   0.0480000
        k(   40) = (   0.5000000  -0.5000000   0.5000000), wk =   0.0040000
        k(   41) = (   0.0000000   0.0000000   0.7000000), wk =   0.0120000
        k(   42) = (   0.0000000  -0.1000000   0.8000000), wk =   0.0480000
        k(   43) = (  -0.1000000   0.9000000  -0.1000000), wk =   0.0160000
        k(   44) = (   0.0000000   0.0000000   0.9000000), wk =   0.0120000

     Dense  grid:     1409 G-vectors     FFT dimensions: (  15,  15,  15)

     Estimated max dynamical RAM per process >       1.78 MB

     Initial potential from superposition of free atoms

     starting charge       0.9960, renormalised to       1.0000
     Starting wfcs are   16 randomized atomic wfcs

     total cpu time spent up to now is        0.1 secs

     Self-consistent Calculation

     iteration #  1     ecut=    20.00 Ry     beta= 0.70
     Davidson diagonalization with overlap
     ethr =  1.00E-02,  avg # of iterations =  4.5

     Threshold (ethr) on eigenvalues was too large:
     Diagonalizing with lowered threshold

     Davidson diagonalization with overlap
     ethr =  2.86E-05,  avg # of iterations =  3.5

     total cpu time spent up to now is        0.2 secs

     total energy              =      -0.69333947 Ry
     estimated scf accuracy    <       0.00028857 Ry

     iteration #  2     ecut=    20.00 Ry     beta= 0.70
     Davidson diagonalization with overlap
     ethr =  2.89E-05,  avg # of iterations =  1.0

     total cpu time spent up to now is        0.2 secs

     total energy              =      -0.69333677 Ry
     estimated scf accuracy    <       0.00002542 Ry

     iteration #  3     ecut=    20.00 Ry     beta= 0.70
     Davidson diagonalization with overlap
     ethr =  2.54E-06,  avg # of iterations =  1.3

     total cpu time spent up to now is        0.3 secs

     End of self-consistent calculation

          k = 0.0000 0.0000 0.1000 (   177 PWs)   bands (ev):

    -2.7165  16.9740  16.9740  17.3167  21.3832

          k = 0.0000-0.1000 0.2000 (   173 PWs)   bands (ev):

    -2.3068  14.4362  15.4442  16.6865  19.5431

          k = 0.0000-0.2000 0.3000 (   169 PWs)   bands (ev):

    -1.4892  10.8923  13.9610  15.7280  18.6993

          k = 0.0000-0.3000 0.4000 (   176 PWs)   bands (ev):

    -0.2972   7.6878  12.9089  14.8985  17.5700

          k = 0.0000-0.4000 0.5000 (   176 PWs)   bands (ev):

     1.0025   5.3527  12.3724  14.4469  17.0022

          k =-0.1000 0.1000 0.1000 (   177 PWs)   bands (ev):

    -2.5123  15.8806  16.2141  16.2141  20.6802

          k =-0.1000-0.1000 0.3000 (   170 PWs)   bands (ev):

    -1.6891  12.3937  13.1675  15.8938  18.5514

          k =-0.1000-0.2000 0.4000 (   173 PWs)   bands (ev):

    -0.6658   9.2340  11.7781  14.9873  18.5906

          k =-0.1000-0.3000 0.5000 (   174 PWs)   bands (ev):

     0.6817   6.4069  11.0082  14.3165  18.7171

          k =-0.1000 0.6000-0.4000 (   170 PWs)   bands (ev):

     1.6410   4.9408  10.7516  14.0791  18.6633

          k =-0.2000 0.2000 0.1000 (   169 PWs)   bands (ev):

    -1.8989  12.6939  14.5481  14.8038  20.1367

          k =-0.2000-0.2000 0.5000 (   173 PWs)   bands (ev):

     0.5610   7.2695   9.8161  14.4418  18.8431

          k =-0.2000 0.7000-0.4000 (   167 PWs)   bands (ev):

     2.0277   5.1496   9.0350  14.1102  19.4685

          k =-0.3000 0.3000 0.1000 (   172 PWs)   bands (ev):

    -0.8846   9.2183  13.4327  13.5883  19.3084

          k =-0.3000 0.2000 0.2000 (   175 PWs)   bands (ev):

    -1.0798  10.6109  11.8773  13.5535  21.1470

          k =-0.3000 0.7000-0.3000 (   167 PWs)   bands (ev):

     3.6225   3.6225   8.2946  14.0492  20.8833

          k =-0.4000 0.4000 0.1000 (   172 PWs)   bands (ev):

     0.4406   6.3490  12.7311  12.8164  18.6428

          k =-0.4000 0.3000 0.2000 (   171 PWs)   bands (ev):

     0.1329   7.6824  10.5911  12.7935  21.2525

          k = 0.5000-0.5000 0.1000 (   170 PWs)   bands (ev):

     1.3587   4.9090  12.4922  12.5543  18.4037

          k = 0.5000-0.6000 0.2000 (   170 PWs)   bands (ev):

     1.5232   5.3051  10.0356  12.4020  21.0793

          k = 0.5000-0.7000 0.3000 (   173 PWs)   bands (ev):

     1.5400   5.8887   8.7496  12.3646  22.7558

          k = 0.4000-0.6000 0.3000 (   167 PWs)   bands (ev):

     2.7796   4.4037   8.2392  12.2199  22.9420

          k = 0.0000 0.0000 0.3000 (   173 PWs)   bands (ev):

    -1.8906  13.7617  13.7617  16.2055  16.7739

          k = 0.0000-0.1000 0.4000 (   171 PWs)   bands (ev):

    -1.0585  10.9993  12.2145  15.4618  16.3553

          k = 0.0000-0.2000 0.5000 (   171 PWs)   bands (ev):

     0.1627   7.8994  11.1374  14.7703  17.2664

          k = 0.0000-0.3000 0.6000 (   173 PWs)   bands (ev):

     1.5339   5.5288  10.5904  14.3997  18.4574

          k =-0.1000-0.1000 0.5000 (   171 PWs)   bands (ev):

    -0.0104   9.1230  10.4061  15.3792  15.6165

          k =-0.1000-0.2000 0.6000 (   174 PWs)   bands (ev):

     1.3972   6.6092   9.4636  14.9736  16.5695

          k =-0.1000 0.7000-0.3000 (   170 PWs)   bands (ev):

     2.4858   5.0801   9.1850  14.7843  17.6058

          k =-0.2000 0.8000-0.3000 (   171 PWs)   bands (ev):

     2.9627   5.0130   8.3282  15.7115  16.7056

          k =-0.3000 0.3000 0.3000 (   171 PWs)   bands (ev):

    -0.0546   9.2595   9.2595  12.1523  22.9963

          k = 0.6000-0.6000 0.3000 (   173 PWs)   bands (ev):

     1.3518   6.4626   8.4340  11.6304  24.2149

          k = 0.5000-0.5000 0.3000 (   166 PWs)   bands (ev):

     2.4978   4.8262   8.1573  11.4726  24.1061

          k = 0.5000-0.6000 0.4000 (   167 PWs)   bands (ev):

     2.9476   5.0506   6.8745  11.2812  26.3248

          k = 0.0000 0.0000 0.5000 (   168 PWs)   bands (ev):

    -0.1975  10.6437  10.6437  13.3132  15.5521

          k = 0.0000-0.1000 0.6000 (   172 PWs)   bands (ev):

     1.0762   8.3404   9.5557  13.1240  15.5923

          k = 0.0000-0.2000 0.7000 (   171 PWs)   bands (ev):

     2.5806   5.9692   9.0047  13.5023  16.4827

          k =-0.1000-0.1000 0.7000 (   171 PWs)   bands (ev):

     2.5581   6.8895   8.4089  13.1427  15.4783

          k =-0.1000 0.8000-0.2000 (   169 PWs)   bands (ev):

     3.8802   5.3867   8.0363  13.7442  15.5993

          k = 0.5000-0.5000 0.5000 (   180 PWs)   bands (ev):

     4.7697   4.7697   4.7697  11.0248  27.8251

          k = 0.0000 0.0000 0.7000 (   176 PWs)   bands (ev):

     2.4241   8.4627   8.4627  11.0055  15.0304

          k = 0.0000-0.1000 0.8000 (   176 PWs)   bands (ev):

     4.0936   6.7452   7.9101  11.4219  13.9370

          k =-0.1000 0.9000-0.1000 (   176 PWs)   bands (ev):

     5.7642   5.7642   7.4439  12.0123  12.0123

          k = 0.0000 0.0000 0.9000 (   176 PWs)   bands (ev):

     5.9184   7.3569   7.3569   9.8515  11.2233

     the Fermi energy is     1.0803 ev

!    total energy              =      -0.69333683 Ry
     estimated scf accuracy    <          5.4E-10 Ry
     smearing contrib. (-TS)   =      -0.00006540 Ry
     internal energy E=F+TS    =      -0.69327143 Ry

     The total energy is F=E-TS. E is the sum of the following terms:
     one-electron contribution =       0.47420701 Ry
     hartree contribution      =       0.00136731 Ry
     xc contribution           =      -0.57225008 Ry
     ewald contribution        =      -0.59659568 Ry

     convergence has been achieved in   3 iterations

     Forces acting on atoms (cartesian axes, Ry/au):

     atom    1 type  1   force =     0.00000000    0.00000000    0.00000000

     Total force =     0.000000     Total SCF correction =     0.000000


     Computing stress (Cartesian axis) and pressure

          total   stress  (Ry/bohr**3)                   (kbar)     P=       27.41
   0.00018634   0.00000000  -0.00000000           27.41        0.00       -0.00
   0.00000000   0.00018634   0.00000000            0.00       27.41        0.00
  -0.00000000   0.00000000   0.00018634           -0.00        0.00       27.41


     Writing all to output data dir ./QE-outdir/li.save/ :
     XML data file, charge density, pseudopotentials, collected wavefunctions

     init_run     :      0.04s CPU      0.05s WALL (       1 calls)
     electrons    :      0.12s CPU      0.21s WALL (       1 calls)
     forces       :      0.00s CPU      0.00s WALL (       1 calls)
     stress       :      0.02s CPU      0.02s WALL (       1 calls)

     Called by init_run:
     wfcinit      :      0.03s CPU      0.04s WALL (       1 calls)
     potinit      :      0.00s CPU      0.00s WALL (       1 calls)
     hinit0       :      0.01s CPU      0.01s WALL (       1 calls)

     Called by electrons:
     c_bands      :      0.11s CPU      0.19s WALL (       4 calls)
     sum_band     :      0.01s CPU      0.01s WALL (       4 calls)
     v_of_rho     :      0.00s CPU      0.00s WALL (       4 calls)
     mix_rho      :      0.00s CPU      0.00s WALL (       4 calls)

     Called by c_bands:
     init_us_2    :      0.01s CPU      0.01s WALL (     484 calls)
     cegterg      :      0.10s CPU      0.19s WALL (     176 calls)

     Called by *egterg:
     cdiaghg      :      0.07s CPU      0.16s WALL (     581 calls)
     h_psi        :      0.05s CPU      0.05s WALL (     669 calls)
     g_psi        :      0.00s CPU      0.00s WALL (     449 calls)

     Called by h_psi:
     h_psi:calbec :      0.00s CPU      0.00s WALL (     669 calls)
     vloc_psi     :      0.05s CPU      0.05s WALL (     669 calls)
                                        0.00s GPU  (     669 calls)
     add_vuspsi   :      0.00s CPU      0.00s WALL (     669 calls)

     General routines
     calbec       :      0.01s CPU      0.01s WALL (    1417 calls)
     fft          :      0.00s CPU      0.00s WALL (      65 calls)
     ffts         :      0.00s CPU      0.00s WALL (       4 calls)
     fftw         :      0.04s CPU      0.04s WALL (    7134 calls)

     Parallel routines

     PWSCF        :      0.19s CPU      0.30s WALL


   This run was terminated on:  14: 5: 1  26Jan2026            

=------------------------------------------------------------------------------=
   JOB DONE.
=------------------------------------------------------------------------------=
