
     Program PWSCF v.7.5 starts on 26Jan2026 at 14: 5: 6 

     This program is part of the open-source Quantum ESPRESSO suite
     for quantum simulation of materials; please cite
         "P. Giannozzi et al., J. Phys.:Condens. Matter 21 395502 (2009);
         "P. Giannozzi et al., J. Phys.:Condens. Matter 29 465901 (2017);
         "P. Giannozzi et al., J. Chem. Phys. 152 154105 (2020);
          URL http://www.quantum-espresso.org", 
     in publications or presentations arising from this work. More details at
     http://www.quantum-espresso.org/quote

     Parallel version (MPI), running on     1 processors

     MPI processes distributed on     1 nodes
     0 MiB available memory on the printing compute node when the environment starts

     Waiting for input...
     Reading input from standard input
     Message from routine read_cards :
     DEPRECATED: no units specified in ATOMIC_POSITIONS card
     Message from routine read_cards :
     ATOMIC_POSITIONS: units set to alat

     Current dimensions of program PWSCF are:
     Max number of different atomic species (ntypx) = 10
     Max number of k-points (npk) =  40000
     Max angular momentum in pseudopotentials (lmaxx) =  4
     file Li.pbe-mt_fhi.UPF: wavefunction(s)  2p 4f renormalized

     Subspace diagonalization in iterative solution of the eigenvalue problem:
     a serial algorithm will be used


     G-vector sticks info
     --------------------
     sticks:   dense  smooth     PW     G-vecs:    dense   smooth      PW
     Sum         205     205     69                 1865     1865     381

     Using Slab Decomposition



     bravais-lattice index     =            3
     lattice parameter (alat)  =       6.7500  a.u.
     unit-cell volume          =     153.7734 (a.u.)^3
     number of atoms/cell      =            1
     number of atomic types    =            1
     number of electrons       =         1.00
     number of Kohn-Sham states=            5
     kinetic-energy cutoff     =      20.0000  Ry
     charge density cutoff     =      80.0000  Ry
     scf convergence threshold =      1.0E-08
     mixing beta               =       0.7000
     number of iterations used =            8  plain     mixing
     Exchange-correlation= PBE
                           (   1   4   3   4   0   0   0)

     celldm(1)=   6.750000  celldm(2)=   0.000000  celldm(3)=   0.000000
     celldm(4)=   0.000000  celldm(5)=   0.000000  celldm(6)=   0.000000

     crystal axes: (cart. coord. in units of alat)
               a(1) = (   0.500000   0.500000   0.500000 )  
               a(2) = (  -0.500000   0.500000   0.500000 )  
               a(3) = (  -0.500000  -0.500000   0.500000 )  

     reciprocal axes: (cart. coord. in units 2 pi/alat)
               b(1) = (  1.000000  0.000000  1.000000 )  
               b(2) = ( -1.000000  1.000000  0.000000 )  
               b(3) = (  0.000000 -1.000000  1.000000 )  


     PseudoPot. # 1 for Li read from file:
     ./pseudopot/Li.pbe-mt_fhi.UPF
     MD5 check sum: 3419f5616d131090147e867976aae79b
     Pseudo is Norm-conserving + core correction, Zval =  1.0
     Generated using FHI98PP, converted with fhi2upf.x v.5.0.2
     Using radial grid of  433 points,  3 beta functions with: 
                l(1) =   0
                l(2) =   1
                l(3) =   3

     atomic species   valence    mass     pseudopotential
     Li                1.00     6.94000     Li( 1.00)

     48 Sym. Ops., with inversion, found



   Cartesian axes

     site n.     atom                  positions (alat units)
         1        Li     tau(   1) = (   0.0000000   0.0000000   0.0000000  )

     number of k points=    44  Methfessel-Paxton smearing, width (Ry)=  0.0100
                       cart. coord. in units 2pi/alat
        k(    1) = (   0.0000000   0.0000000   0.1000000), wk =   0.0120000
        k(    2) = (   0.0000000  -0.1000000   0.2000000), wk =   0.0480000
        k(    3) = (   0.0000000  -0.2000000   0.3000000), wk =   0.0480000
        k(    4) = (   0.0000000  -0.3000000   0.4000000), wk =   0.0480000
        k(    5) = (   0.0000000  -0.4000000   0.5000000), wk =   0.0480000
        k(    6) = (  -0.1000000   0.1000000   0.1000000), wk =   0.0160000
        k(    7) = (  -0.1000000  -0.1000000   0.3000000), wk =   0.0480000
        k(    8) = (  -0.1000000  -0.2000000   0.4000000), wk =   0.0960000
        k(    9) = (  -0.1000000  -0.3000000   0.5000000), wk =   0.0960000
        k(   10) = (  -0.1000000   0.6000000  -0.4000000), wk =   0.0480000
        k(   11) = (  -0.2000000   0.2000000   0.1000000), wk =   0.0480000
        k(   12) = (  -0.2000000  -0.2000000   0.5000000), wk =   0.0480000
        k(   13) = (  -0.2000000   0.7000000  -0.4000000), wk =   0.0960000
        k(   14) = (  -0.3000000   0.3000000   0.1000000), wk =   0.0480000
        k(   15) = (  -0.3000000   0.2000000   0.2000000), wk =   0.0480000
        k(   16) = (  -0.3000000   0.7000000  -0.3000000), wk =   0.0160000
        k(   17) = (  -0.4000000   0.4000000   0.1000000), wk =   0.0480000
        k(   18) = (  -0.4000000   0.3000000   0.2000000), wk =   0.0960000
        k(   19) = (   0.5000000  -0.5000000   0.1000000), wk =   0.0240000
        k(   20) = (   0.5000000  -0.6000000   0.2000000), wk =   0.0960000
        k(   21) = (   0.5000000  -0.7000000   0.3000000), wk =   0.0480000
        k(   22) = (   0.4000000  -0.6000000   0.3000000), wk =   0.0480000
        k(   23) = (   0.0000000   0.0000000   0.3000000), wk =   0.0120000
        k(   24) = (   0.0000000  -0.1000000   0.4000000), wk =   0.0480000
        k(   25) = (   0.0000000  -0.2000000   0.5000000), wk =   0.0480000
        k(   26) = (   0.0000000  -0.3000000   0.6000000), wk =   0.0480000
        k(   27) = (  -0.1000000  -0.1000000   0.5000000), wk =   0.0480000
        k(   28) = (  -0.1000000  -0.2000000   0.6000000), wk =   0.0960000
        k(   29) = (  -0.1000000   0.7000000  -0.3000000), wk =   0.0480000
        k(   30) = (  -0.2000000   0.8000000  -0.3000000), wk =   0.0480000
        k(   31) = (  -0.3000000   0.3000000   0.3000000), wk =   0.0160000
        k(   32) = (   0.6000000  -0.6000000   0.3000000), wk =   0.0480000
        k(   33) = (   0.5000000  -0.5000000   0.3000000), wk =   0.0240000
        k(   34) = (   0.5000000  -0.6000000   0.4000000), wk =   0.0480000
        k(   35) = (   0.0000000   0.0000000   0.5000000), wk =   0.0120000
        k(   36) = (   0.0000000  -0.1000000   0.6000000), wk =   0.0480000
        k(   37) = (   0.0000000  -0.2000000   0.7000000), wk =   0.0480000
        k(   38) = (  -0.1000000  -0.1000000   0.7000000), wk =   0.0480000
        k(   39) = (  -0.1000000   0.8000000  -0.2000000), wk =   0.0480000
        k(   40) = (   0.5000000  -0.5000000   0.5000000), wk =   0.0040000
        k(   41) = (   0.0000000   0.0000000   0.7000000), wk =   0.0120000
        k(   42) = (   0.0000000  -0.1000000   0.8000000), wk =   0.0480000
        k(   43) = (  -0.1000000   0.9000000  -0.1000000), wk =   0.0160000
        k(   44) = (   0.0000000   0.0000000   0.9000000), wk =   0.0120000

     Dense  grid:     1865 G-vectors     FFT dimensions: (  18,  18,  18)

     Estimated max dynamical RAM per process >       2.38 MB

     Initial potential from superposition of free atoms

     starting charge       0.9960, renormalised to       1.0000
     Starting wfcs are   16 randomized atomic wfcs

     total cpu time spent up to now is        0.1 secs

     Self-consistent Calculation

     iteration #  1     ecut=    20.00 Ry     beta= 0.70
     Davidson diagonalization with overlap
     ethr =  1.00E-02,  avg # of iterations =  4.8

     Threshold (ethr) on eigenvalues was too large:
     Diagonalizing with lowered threshold

     Davidson diagonalization with overlap
     ethr =  1.74E-05,  avg # of iterations =  4.0

     total cpu time spent up to now is        0.3 secs

     total energy              =      -0.69377342 Ry
     estimated scf accuracy    <       0.00017312 Ry

     iteration #  2     ecut=    20.00 Ry     beta= 0.70
     Davidson diagonalization with overlap
     ethr =  1.73E-05,  avg # of iterations =  1.0

     total cpu time spent up to now is        0.3 secs

     total energy              =      -0.69377363 Ry
     estimated scf accuracy    <       0.00001574 Ry

     iteration #  3     ecut=    20.00 Ry     beta= 0.70
     Davidson diagonalization with overlap
     ethr =  1.57E-06,  avg # of iterations =  1.3

     total cpu time spent up to now is        0.4 secs

     End of self-consistent calculation

          k = 0.0000 0.0000 0.1000 (   225 PWs)   bands (ev):

    -3.1359  13.1150  13.1150  13.3552  17.0305

          k = 0.0000-0.1000 0.2000 (   227 PWs)   bands (ev):

    -2.7691  11.1034  11.9172  12.8776  15.4379

          k = 0.0000-0.2000 0.3000 (   229 PWs)   bands (ev):

    -2.0385   8.2143  10.7302  12.1480  14.7743

          k = 0.0000-0.3000 0.4000 (   234 PWs)   bands (ev):

    -0.9686   5.5358   9.8836  11.5004  13.8535

          k = 0.0000-0.4000 0.5000 (   235 PWs)   bands (ev):

     0.2453   3.4926   9.4502  11.1438  13.3905

          k =-0.1000 0.1000 0.1000 (   225 PWs)   bands (ev):

    -2.9528  12.1913  12.5610  12.5610  16.3383

          k =-0.1000-0.1000 0.3000 (   228 PWs)   bands (ev):

    -2.2185   9.5401   9.9957  12.2615  14.6314

          k =-0.1000-0.2000 0.4000 (   232 PWs)   bands (ev):

    -1.3080   6.9063   8.8792  11.5675  14.6151

          k =-0.1000-0.3000 0.5000 (   229 PWs)   bands (ev):

    -0.0957   4.5018   8.2558  11.0422  14.6366

          k =-0.1000 0.6000-0.4000 (   231 PWs)   bands (ev):

     0.8236   3.1746   8.0469  10.8545  14.5747

          k =-0.2000 0.2000 0.1000 (   224 PWs)   bands (ev):

    -2.4039   9.7122  11.1245  11.4779  15.8526

          k =-0.2000-0.2000 0.5000 (   229 PWs)   bands (ev):

    -0.2247   5.4026   7.0984  11.1362  14.8602

          k =-0.2000 0.7000-0.4000 (   226 PWs)   bands (ev):

     1.0861   3.5940   6.4266  10.8674  15.3084

          k =-0.3000 0.3000 0.1000 (   235 PWs)   bands (ev):

    -1.4973   6.8445  10.2030  10.5174  15.2031

          k =-0.3000 0.2000 0.2000 (   232 PWs)   bands (ev):

    -1.6739   8.1150   8.9561  10.3140  16.5875

          k =-0.3000 0.7000-0.3000 (   234 PWs)   bands (ev):

     2.4370   2.4370   5.6781  10.8063  16.5246

          k =-0.4000 0.4000 0.1000 (   234 PWs)   bands (ev):

    -0.2967   4.4079   9.6265   9.9011  14.6771

          k =-0.4000 0.3000 0.2000 (   233 PWs)   bands (ev):

    -0.5954   5.6578   7.9341   9.6444  16.6798

          k = 0.5000-0.5000 0.1000 (   234 PWs)   bands (ev):

     0.5938   3.0994   9.4307   9.6905  14.4864

          k = 0.5000-0.6000 0.2000 (   235 PWs)   bands (ev):

     0.6721   3.5939   7.4954   9.3005  16.5492

          k = 0.5000-0.7000 0.3000 (   232 PWs)   bands (ev):

     0.6418   4.2828   6.2836   9.2272  17.8733

          k = 0.4000-0.6000 0.3000 (   235 PWs)   bands (ev):

     1.7516   3.0109   5.8381   9.0851  18.0246

          k = 0.0000 0.0000 0.3000 (   225 PWs)   bands (ev):

    -2.3995  10.5929  10.5929  12.3538  13.2658

          k = 0.0000-0.1000 0.4000 (   230 PWs)   bands (ev):

    -1.6625   8.3479   9.3498  11.8367  12.7707

          k = 0.0000-0.2000 0.5000 (   230 PWs)   bands (ev):

    -0.5786   5.7669   8.4787  11.2523  13.5061

          k = 0.0000-0.3000 0.6000 (   232 PWs)   bands (ev):

     0.6786   3.7097   8.0358  10.9366  14.4470

          k =-0.1000-0.1000 0.5000 (   236 PWs)   bands (ev):

    -0.7413   6.8952   7.7578  11.8532  12.0688

          k =-0.1000-0.2000 0.6000 (   231 PWs)   bands (ev):

     0.5015   4.7763   6.9673  11.4526  12.9349

          k =-0.1000 0.7000-0.3000 (   233 PWs)   bands (ev):

     1.5107   3.4093   6.7398  11.2879  13.7753

          k =-0.2000 0.8000-0.3000 (   232 PWs)   bands (ev):

     1.8617   3.5664   5.8347  12.0205  13.1352

          k =-0.3000 0.3000 0.3000 (   234 PWs)   bands (ev):

    -0.7657   7.0233   7.0233   8.8372  18.0769

          k = 0.6000-0.6000 0.3000 (   235 PWs)   bands (ev):

     0.4748   4.6948   6.3549   8.3238  18.8154

          k = 0.5000-0.5000 0.3000 (   234 PWs)   bands (ev):

     1.5221   3.2579   6.1304   8.1699  18.9977

          k = 0.5000-0.6000 0.4000 (   230 PWs)   bands (ev):

     1.8550   3.6018   5.0122   7.9238  20.0376

          k = 0.0000 0.0000 0.5000 (   233 PWs)   bands (ev):

    -0.9126   8.0838   8.0838  10.4396  11.6221

          k = 0.0000-0.1000 0.6000 (   236 PWs)   bands (ev):

     0.1964   6.1975   7.2024  10.1882  11.6812

          k = 0.0000-0.2000 0.7000 (   231 PWs)   bands (ev):

     1.5324   4.1765   6.7559  10.2737  12.6388

          k =-0.1000-0.1000 0.7000 (   233 PWs)   bands (ev):

     1.4747   5.0814   6.1427  10.2494  11.5990

          k =-0.1000 0.8000-0.2000 (   232 PWs)   bands (ev):

     2.6435   3.7944   5.8040  10.6297  12.2368

          k = 0.5000-0.5000 0.5000 (   240 PWs)   bands (ev):

     3.3736   3.3736   3.3736   7.5695  21.9167

          k = 0.0000 0.0000 0.7000 (   233 PWs)   bands (ev):

     1.3408   6.3173   6.3173   8.5550  11.1539

          k = 0.0000-0.1000 0.8000 (   239 PWs)   bands (ev):

     2.7689   4.8998   5.8687   8.8259  10.7350

          k =-0.1000 0.9000-0.1000 (   236 PWs)   bands (ev):

     4.1663   4.1663   5.3914   9.3284   9.3284

          k = 0.0000 0.0000 0.9000 (   236 PWs)   bands (ev):

     4.2641   5.4194   5.4194   7.6127   8.6739

     the Fermi energy is     0.2631 ev

!    total energy              =      -0.69377374 Ry
     estimated scf accuracy    <          1.6E-09 Ry
     smearing contrib. (-TS)   =      -0.00003300 Ry
     internal energy E=F+TS    =      -0.69374075 Ry

     The total energy is F=E-TS. E is the sum of the following terms:
     one-electron contribution =       0.37872133 Ry
     hartree contribution      =       0.00085440 Ry
     xc contribution           =      -0.53417074 Ry
     ewald contribution        =      -0.53914573 Ry

     convergence has been achieved in   3 iterations

     Forces acting on atoms (cartesian axes, Ry/au):

     atom    1 type  1   force =     0.00000000    0.00000000    0.00000000

     Total force =     0.000000     Total SCF correction =     0.000000


     Computing stress (Cartesian axis) and pressure

          total   stress  (Ry/bohr**3)                   (kbar)     P=      -15.68
  -0.00010656   0.00000000  -0.00000000          -15.68        0.00       -0.00
   0.00000000  -0.00010656   0.00000000            0.00      -15.68        0.00
  -0.00000000   0.00000000  -0.00010656           -0.00        0.00      -15.68


     Writing all to output data dir ./QE-outdir/li.save/ :
     XML data file, charge density, pseudopotentials, collected wavefunctions

     init_run     :      0.06s CPU      0.08s WALL (       1 calls)
     electrons    :      0.22s CPU      0.32s WALL (       1 calls)
     forces       :      0.00s CPU      0.00s WALL (       1 calls)
     stress       :      0.03s CPU      0.03s WALL (       1 calls)

     Called by init_run:
     wfcinit      :      0.05s CPU      0.06s WALL (       1 calls)
     potinit      :      0.00s CPU      0.00s WALL (       1 calls)
     hinit0       :      0.01s CPU      0.01s WALL (       1 calls)

     Called by electrons:
     c_bands      :      0.19s CPU      0.29s WALL (       4 calls)
     sum_band     :      0.03s CPU      0.03s WALL (       4 calls)
     v_of_rho     :      0.00s CPU      0.00s WALL (       4 calls)
     mix_rho      :      0.00s CPU      0.00s WALL (       4 calls)

     Called by c_bands:
     init_us_2    :      0.01s CPU      0.01s WALL (     484 calls)
     cegterg      :      0.19s CPU      0.28s WALL (     176 calls)

     Called by *egterg:
     cdiaghg      :      0.07s CPU      0.17s WALL (     617 calls)
     h_psi        :      0.15s CPU      0.15s WALL (     705 calls)
     g_psi        :      0.00s CPU      0.00s WALL (     485 calls)

     Called by h_psi:
     h_psi:calbec :      0.00s CPU      0.00s WALL (     705 calls)
     vloc_psi     :      0.14s CPU      0.14s WALL (     705 calls)
                                        0.00s GPU  (     705 calls)
     add_vuspsi   :      0.00s CPU      0.00s WALL (     705 calls)

     General routines
     calbec       :      0.01s CPU      0.01s WALL (    1453 calls)
     fft          :      0.00s CPU      0.00s WALL (      65 calls)
     ffts         :      0.00s CPU      0.00s WALL (       4 calls)
     fftw         :      0.14s CPU      0.15s WALL (    7394 calls)

     Parallel routines

     PWSCF        :      0.33s CPU      0.44s WALL


   This run was terminated on:  14: 5: 7  26Jan2026            

=------------------------------------------------------------------------------=
   JOB DONE.
=------------------------------------------------------------------------------=
