
     Program PWSCF v.7.5 starts on 31Jan2026 at 23:33:19 

     This program is part of the open-source Quantum ESPRESSO suite
     for quantum simulation of materials; please cite
         "P. Giannozzi et al., J. Phys.:Condens. Matter 21 395502 (2009);
         "P. Giannozzi et al., J. Phys.:Condens. Matter 29 465901 (2017);
         "P. Giannozzi et al., J. Chem. Phys. 152 154105 (2020);
          URL http://www.quantum-espresso.org", 
     in publications or presentations arising from this work. More details at
     http://www.quantum-espresso.org/quote

     Parallel version (MPI), running on     1 processors

     MPI processes distributed on     1 nodes
     0 MiB available memory on the printing compute node when the environment starts

     Waiting for input...
     Reading input from standard input
     Message from routine read_cards :
     DEPRECATED: no units specified in ATOMIC_POSITIONS card
     Message from routine read_cards :
     ATOMIC_POSITIONS: units set to alat

     Current dimensions of program PWSCF are:
     Max number of different atomic species (ntypx) = 10
     Max number of k-points (npk) =  40000
     Max angular momentum in pseudopotentials (lmaxx) =  4
     file Li.pbe-mt_fhi.UPF: wavefunction(s)  2p 4f renormalized

     Subspace diagonalization in iterative solution of the eigenvalue problem:
     a serial algorithm will be used


     G-vector sticks info
     --------------------
     sticks:   dense  smooth     PW     G-vecs:    dense   smooth      PW
     Sum         181     181     63                 1553     1553     321

     Using Slab Decomposition



     bravais-lattice index     =            3
     lattice parameter (alat)  =       6.3800  a.u.
     unit-cell volume          =     129.8470 (a.u.)^3
     number of atoms/cell      =            1
     number of atomic types    =            1
     number of electrons       =         1.00
     number of Kohn-Sham states=            5
     kinetic-energy cutoff     =      20.0000  Ry
     charge density cutoff     =      80.0000  Ry
     scf convergence threshold =      1.0E-08
     mixing beta               =       0.7000
     number of iterations used =            8  plain     mixing
     Exchange-correlation= PBE
                           (   1   4   3   4   0   0   0)

     celldm(1)=   6.380000  celldm(2)=   0.000000  celldm(3)=   0.000000
     celldm(4)=   0.000000  celldm(5)=   0.000000  celldm(6)=   0.000000

     crystal axes: (cart. coord. in units of alat)
               a(1) = (   0.500000   0.500000   0.500000 )  
               a(2) = (  -0.500000   0.500000   0.500000 )  
               a(3) = (  -0.500000  -0.500000   0.500000 )  

     reciprocal axes: (cart. coord. in units 2 pi/alat)
               b(1) = (  1.000000  0.000000  1.000000 )  
               b(2) = ( -1.000000  1.000000  0.000000 )  
               b(3) = (  0.000000 -1.000000  1.000000 )  


     PseudoPot. # 1 for Li read from file:
     ./pseudopot/Li.pbe-mt_fhi.UPF
     MD5 check sum: 3419f5616d131090147e867976aae79b
     Pseudo is Norm-conserving + core correction, Zval =  1.0
     Generated using FHI98PP, converted with fhi2upf.x v.5.0.2
     Using radial grid of  433 points,  3 beta functions with: 
                l(1) =   0
                l(2) =   1
                l(3) =   3

     atomic species   valence    mass     pseudopotential
     Li                1.00     6.94000     Li( 1.00)

     48 Sym. Ops., with inversion, found



   Cartesian axes

     site n.     atom                  positions (alat units)
         1        Li     tau(   1) = (   0.0000000   0.0000000   0.0000000  )

     number of k points=    44  Methfessel-Paxton smearing, width (Ry)=  0.0100
                       cart. coord. in units 2pi/alat
        k(    1) = (   0.0000000   0.0000000   0.1000000), wk =   0.0120000
        k(    2) = (   0.0000000  -0.1000000   0.2000000), wk =   0.0480000
        k(    3) = (   0.0000000  -0.2000000   0.3000000), wk =   0.0480000
        k(    4) = (   0.0000000  -0.3000000   0.4000000), wk =   0.0480000
        k(    5) = (   0.0000000  -0.4000000   0.5000000), wk =   0.0480000
        k(    6) = (  -0.1000000   0.1000000   0.1000000), wk =   0.0160000
        k(    7) = (  -0.1000000  -0.1000000   0.3000000), wk =   0.0480000
        k(    8) = (  -0.1000000  -0.2000000   0.4000000), wk =   0.0960000
        k(    9) = (  -0.1000000  -0.3000000   0.5000000), wk =   0.0960000
        k(   10) = (  -0.1000000   0.6000000  -0.4000000), wk =   0.0480000
        k(   11) = (  -0.2000000   0.2000000   0.1000000), wk =   0.0480000
        k(   12) = (  -0.2000000  -0.2000000   0.5000000), wk =   0.0480000
        k(   13) = (  -0.2000000   0.7000000  -0.4000000), wk =   0.0960000
        k(   14) = (  -0.3000000   0.3000000   0.1000000), wk =   0.0480000
        k(   15) = (  -0.3000000   0.2000000   0.2000000), wk =   0.0480000
        k(   16) = (  -0.3000000   0.7000000  -0.3000000), wk =   0.0160000
        k(   17) = (  -0.4000000   0.4000000   0.1000000), wk =   0.0480000
        k(   18) = (  -0.4000000   0.3000000   0.2000000), wk =   0.0960000
        k(   19) = (   0.5000000  -0.5000000   0.1000000), wk =   0.0240000
        k(   20) = (   0.5000000  -0.6000000   0.2000000), wk =   0.0960000
        k(   21) = (   0.5000000  -0.7000000   0.3000000), wk =   0.0480000
        k(   22) = (   0.4000000  -0.6000000   0.3000000), wk =   0.0480000
        k(   23) = (   0.0000000   0.0000000   0.3000000), wk =   0.0120000
        k(   24) = (   0.0000000  -0.1000000   0.4000000), wk =   0.0480000
        k(   25) = (   0.0000000  -0.2000000   0.5000000), wk =   0.0480000
        k(   26) = (   0.0000000  -0.3000000   0.6000000), wk =   0.0480000
        k(   27) = (  -0.1000000  -0.1000000   0.5000000), wk =   0.0480000
        k(   28) = (  -0.1000000  -0.2000000   0.6000000), wk =   0.0960000
        k(   29) = (  -0.1000000   0.7000000  -0.3000000), wk =   0.0480000
        k(   30) = (  -0.2000000   0.8000000  -0.3000000), wk =   0.0480000
        k(   31) = (  -0.3000000   0.3000000   0.3000000), wk =   0.0160000
        k(   32) = (   0.6000000  -0.6000000   0.3000000), wk =   0.0480000
        k(   33) = (   0.5000000  -0.5000000   0.3000000), wk =   0.0240000
        k(   34) = (   0.5000000  -0.6000000   0.4000000), wk =   0.0480000
        k(   35) = (   0.0000000   0.0000000   0.5000000), wk =   0.0120000
        k(   36) = (   0.0000000  -0.1000000   0.6000000), wk =   0.0480000
        k(   37) = (   0.0000000  -0.2000000   0.7000000), wk =   0.0480000
        k(   38) = (  -0.1000000  -0.1000000   0.7000000), wk =   0.0480000
        k(   39) = (  -0.1000000   0.8000000  -0.2000000), wk =   0.0480000
        k(   40) = (   0.5000000  -0.5000000   0.5000000), wk =   0.0040000
        k(   41) = (   0.0000000   0.0000000   0.7000000), wk =   0.0120000
        k(   42) = (   0.0000000  -0.1000000   0.8000000), wk =   0.0480000
        k(   43) = (  -0.1000000   0.9000000  -0.1000000), wk =   0.0160000
        k(   44) = (   0.0000000   0.0000000   0.9000000), wk =   0.0120000

     Dense  grid:     1553 G-vectors     FFT dimensions: (  15,  15,  15)

     Estimated max dynamical RAM per process >       1.94 MB

     Initial potential from superposition of free atoms

     starting charge       0.9960, renormalised to       1.0000
     Starting wfcs are   16 randomized atomic wfcs

     total cpu time spent up to now is        0.1 secs

     Self-consistent Calculation

     iteration #  1     ecut=    20.00 Ry     beta= 0.70
     Davidson diagonalization with overlap
     ethr =  1.00E-02,  avg # of iterations =  4.2

     Threshold (ethr) on eigenvalues was too large:
     Diagonalizing with lowered threshold

     Davidson diagonalization with overlap
     ethr =  2.20E-05,  avg # of iterations =  3.8

     total cpu time spent up to now is        0.2 secs

     total energy              =      -0.69493950 Ry
     estimated scf accuracy    <       0.00021860 Ry

     iteration #  2     ecut=    20.00 Ry     beta= 0.70
     Davidson diagonalization with overlap
     ethr =  2.19E-05,  avg # of iterations =  1.0

     total cpu time spent up to now is        0.2 secs

     total energy              =      -0.69493805 Ry
     estimated scf accuracy    <       0.00001942 Ry

     iteration #  3     ecut=    20.00 Ry     beta= 0.70
     Davidson diagonalization with overlap
     ethr =  1.94E-06,  avg # of iterations =  1.5

     total cpu time spent up to now is        0.3 secs

     End of self-consistent calculation

          k = 0.0000 0.0000 0.1000 (   197 PWs)   bands (ev):

    -2.9339  15.1627  15.1628  15.4580  19.3421

          k = 0.0000-0.1000 0.2000 (   196 PWs)   bands (ev):

    -2.5421  12.8734  13.7897  14.8998  17.6168

          k = 0.0000-0.2000 0.3000 (   193 PWs)   bands (ev):

    -1.7609   9.6348  12.4450  14.0491  16.8587

          k = 0.0000-0.3000 0.4000 (   190 PWs)   bands (ev):

    -0.6202   6.6731  11.4903  13.3058  15.8272

          k = 0.0000-0.4000 0.5000 (   193 PWs)   bands (ev):

     0.6451   4.4697  11.0030  12.8986  15.3086

          k =-0.1000 0.1000 0.1000 (   198 PWs)   bands (ev):

    -2.7385  14.1489  14.5013  14.5013  18.6421

          k =-0.1000-0.1000 0.3000 (   199 PWs)   bands (ev):

    -1.9527  11.0551  11.6785  14.1898  16.7119

          k =-0.1000-0.2000 0.4000 (   195 PWs)   bands (ev):

    -0.9774   8.1418  10.4152  13.3839  16.7260

          k =-0.1000-0.3000 0.5000 (   191 PWs)   bands (ev):

     0.3127   5.5088   9.7137  12.7817  16.8044

          k =-0.1000 0.6000-0.4000 (   195 PWs)   bands (ev):

     1.2557   4.1055   9.4792  12.5674  16.7469

          k =-0.2000 0.2000 0.1000 (   195 PWs)   bands (ev):

    -2.1520  11.2962  12.9388  13.2447  18.1261

          k =-0.2000-0.2000 0.5000 (   194 PWs)   bands (ev):

     0.1866   6.3930   8.5349  12.8915  16.9746

          k =-0.2000 0.7000-0.4000 (   197 PWs)   bands (ev):

     1.5839   4.4190   7.8011  12.5886  17.5190

          k =-0.3000 0.3000 0.1000 (   194 PWs)   bands (ev):

    -1.1830   8.1029  11.9150  12.1488  17.3833

          k =-0.3000 0.2000 0.2000 (   194 PWs)   bands (ev):

    -1.3706   9.4403  10.5109  12.0261  19.0077

          k =-0.3000 0.7000-0.3000 (   197 PWs)   bands (ev):

     3.0650   3.0650   7.0572  12.5271  18.8388

          k =-0.4000 0.4000 0.1000 (   192 PWs)   bands (ev):

     0.0901   5.4316  11.2720  11.4500  16.7837

          k =-0.4000 0.3000 0.2000 (   191 PWs)   bands (ev):

    -0.2157   6.7325   9.3463  11.3064  19.1101

          k = 0.5000-0.5000 0.1000 (   192 PWs)   bands (ev):

     0.9979   4.0508  11.0537  11.2124  16.5674

          k = 0.5000-0.6000 0.2000 (   195 PWs)   bands (ev):

     1.1219   4.4985   8.8452  10.9365  18.9581

          k = 0.5000-0.7000 0.3000 (   196 PWs)   bands (ev):

     1.1155   5.1344   7.5931  10.8801  20.5238

          k = 0.4000-0.6000 0.3000 (   201 PWs)   bands (ev):

     2.2955   3.7498   7.1118  10.7350  20.6418

          k = 0.0000 0.0000 0.3000 (   201 PWs)   bands (ev):

    -2.1457  12.2750  12.2750  14.3968  15.1281

          k = 0.0000-0.1000 0.4000 (   198 PWs)   bands (ev):

    -1.3544   9.7555  10.8704  13.7699  14.6627

          k = 0.0000-0.2000 0.5000 (   192 PWs)   bands (ev):

    -0.1923   6.8966   9.8902  13.1198  15.5001

          k = 0.0000-0.3000 0.6000 (   199 PWs)   bands (ev):

     1.1306   4.6684   9.3923  12.7729  16.5758

          k =-0.1000-0.1000 0.5000 (   195 PWs)   bands (ev):

    -0.3618   8.0778   9.1626  13.8257  13.8496

          k =-0.1000-0.2000 0.6000 (   200 PWs)   bands (ev):

     0.9731   5.7485   8.2882  13.3245  14.8603

          k =-0.1000 0.7000-0.3000 (   202 PWs)   bands (ev):

     2.0265   4.2942   8.0332  13.1436  15.8070

          k =-0.2000 0.8000-0.3000 (   202 PWs)   bands (ev):

     2.4444   4.3334   7.1513  13.9799  15.0306

          k =-0.3000 0.3000 0.3000 (   186 PWs)   bands (ev):

    -0.3959   8.2107   8.2107  10.5881  20.6883

          k = 0.6000-0.6000 0.3000 (   192 PWs)   bands (ev):

     0.9368   5.6330   7.4587  10.0652  21.7972

          k = 0.5000-0.5000 0.3000 (   198 PWs)   bands (ev):

     2.0382   4.0892   7.2065   9.9072  21.7112

          k = 0.5000-0.6000 0.4000 (   197 PWs)   bands (ev):

     2.4333   4.3699   6.0025   9.6868  22.9282

          k = 0.0000 0.0000 0.5000 (   201 PWs)   bands (ev):

    -0.5426   9.4421   9.4421  11.9645  13.7054

          k = 0.0000-0.1000 0.6000 (   200 PWs)   bands (ev):

     0.6576   7.3348   8.4516  11.7496  13.7501

          k = 0.0000-0.2000 0.7000 (   202 PWs)   bands (ev):

     2.0869   5.1251   7.9496  11.9922  14.6740

          k =-0.1000-0.1000 0.7000 (   203 PWs)   bands (ev):

     2.0468   6.0408   7.3441  11.7849  13.6620

          k =-0.1000 0.8000-0.2000 (   204 PWs)   bands (ev):

     3.2984   4.6395   6.9857  12.2876  14.0214

          k = 0.5000-0.5000 0.5000 (   180 PWs)   bands (ev):

     4.1146   4.1146   4.1146   9.3861  25.0571

          k = 0.0000 0.0000 0.7000 (   204 PWs)   bands (ev):

     1.9121   7.4560   7.4560   9.8550  13.2190

          k = 0.0000-0.1000 0.8000 (   204 PWs)   bands (ev):

     3.4706   5.8789   6.9522  10.2042  12.4454

          k =-0.1000 0.9000-0.1000 (   206 PWs)   bands (ev):

     5.0140   5.0140   6.4800  10.7527  10.7527

          k = 0.0000 0.0000 0.9000 (   204 PWs)   bands (ev):

     5.1415   6.4481   6.4481   8.8001  10.0270

     the Fermi energy is     0.6886 ev

!    total energy              =      -0.69493813 Ry
     estimated scf accuracy    <          8.2E-10 Ry
     smearing contrib. (-TS)   =      -0.00007636 Ry
     internal energy E=F+TS    =      -0.69486177 Ry

     The total energy is F=E-TS. E is the sum of the following terms:
     one-electron contribution =       0.42919357 Ry
     hartree contribution      =       0.00113292 Ry
     xc contribution           =      -0.55477546 Ry
     ewald contribution        =      -0.57041280 Ry

     convergence has been achieved in   3 iterations

     Forces acting on atoms (cartesian axes, Ry/au):

     atom    1 type  1   force =     0.00000000    0.00000000    0.00000000

     Total force =     0.000000     Total SCF correction =     0.000000


     Computing stress (Cartesian axis) and pressure

          total   stress  (Ry/bohr**3)                   (kbar)     P=        3.09
   0.00002103  -0.00000000   0.00000000            3.09       -0.00        0.00
  -0.00000000   0.00002103  -0.00000000           -0.00        3.09       -0.00
   0.00000000  -0.00000000   0.00002103            0.00       -0.00        3.09


     Writing all to output data dir ./QE-outdir/li.save/ :
     XML data file, charge density, pseudopotentials, collected wavefunctions

     init_run     :      0.04s CPU      0.06s WALL (       1 calls)
     electrons    :      0.13s CPU      0.21s WALL (       1 calls)
     forces       :      0.00s CPU      0.00s WALL (       1 calls)
     stress       :      0.02s CPU      0.02s WALL (       1 calls)

     Called by init_run:
     wfcinit      :      0.03s CPU      0.04s WALL (       1 calls)
     potinit      :      0.00s CPU      0.00s WALL (       1 calls)
     hinit0       :      0.01s CPU      0.01s WALL (       1 calls)

     Called by electrons:
     c_bands      :      0.12s CPU      0.20s WALL (       4 calls)
     sum_band     :      0.01s CPU      0.01s WALL (       4 calls)
     v_of_rho     :      0.00s CPU      0.00s WALL (       4 calls)
     mix_rho      :      0.00s CPU      0.00s WALL (       4 calls)

     Called by c_bands:
     init_us_2    :      0.01s CPU      0.01s WALL (     484 calls)
     cegterg      :      0.11s CPU      0.19s WALL (     176 calls)

     Called by *egterg:
     cdiaghg      :      0.07s CPU      0.16s WALL (     595 calls)
     h_psi        :      0.05s CPU      0.06s WALL (     683 calls)
     g_psi        :      0.00s CPU      0.00s WALL (     463 calls)

     Called by h_psi:
     h_psi:calbec :      0.00s CPU      0.00s WALL (     683 calls)
     vloc_psi     :      0.05s CPU      0.05s WALL (     683 calls)
                                        0.00s GPU  (     683 calls)
     add_vuspsi   :      0.00s CPU      0.00s WALL (     683 calls)

     General routines
     calbec       :      0.01s CPU      0.01s WALL (    1431 calls)
     fft          :      0.00s CPU      0.00s WALL (      65 calls)
     ffts         :      0.00s CPU      0.00s WALL (       4 calls)
     fftw         :      0.04s CPU      0.04s WALL (    7252 calls)

     Parallel routines

     PWSCF        :      0.20s CPU      0.31s WALL


   This run was terminated on:  23:33:19  31Jan2026            

=------------------------------------------------------------------------------=
   JOB DONE.
=------------------------------------------------------------------------------=
