
     Program PWSCF v.7.5 starts on 31Jan2026 at 23:33:17 

     This program is part of the open-source Quantum ESPRESSO suite
     for quantum simulation of materials; please cite
         "P. Giannozzi et al., J. Phys.:Condens. Matter 21 395502 (2009);
         "P. Giannozzi et al., J. Phys.:Condens. Matter 29 465901 (2017);
         "P. Giannozzi et al., J. Chem. Phys. 152 154105 (2020);
          URL http://www.quantum-espresso.org", 
     in publications or presentations arising from this work. More details at
     http://www.quantum-espresso.org/quote

     Parallel version (MPI), running on     1 processors

     MPI processes distributed on     1 nodes
     0 MiB available memory on the printing compute node when the environment starts

     Waiting for input...
     Reading input from standard input
     Message from routine read_cards :
     DEPRECATED: no units specified in ATOMIC_POSITIONS card
     Message from routine read_cards :
     ATOMIC_POSITIONS: units set to alat

     Current dimensions of program PWSCF are:
     Max number of different atomic species (ntypx) = 10
     Max number of k-points (npk) =  40000
     Max angular momentum in pseudopotentials (lmaxx) =  4
     file Li.pbe-mt_fhi.UPF: wavefunction(s)  2p 4f renormalized

     Subspace diagonalization in iterative solution of the eigenvalue problem:
     a serial algorithm will be used


     G-vector sticks info
     --------------------
     sticks:   dense  smooth     PW     G-vecs:    dense   smooth      PW
     Sum         173     173     63                 1481     1481     321

     Using Slab Decomposition



     bravais-lattice index     =            3
     lattice parameter (alat)  =       6.2800  a.u.
     unit-cell volume          =     123.8366 (a.u.)^3
     number of atoms/cell      =            1
     number of atomic types    =            1
     number of electrons       =         1.00
     number of Kohn-Sham states=            5
     kinetic-energy cutoff     =      20.0000  Ry
     charge density cutoff     =      80.0000  Ry
     scf convergence threshold =      1.0E-08
     mixing beta               =       0.7000
     number of iterations used =            8  plain     mixing
     Exchange-correlation= PBE
                           (   1   4   3   4   0   0   0)

     celldm(1)=   6.280000  celldm(2)=   0.000000  celldm(3)=   0.000000
     celldm(4)=   0.000000  celldm(5)=   0.000000  celldm(6)=   0.000000

     crystal axes: (cart. coord. in units of alat)
               a(1) = (   0.500000   0.500000   0.500000 )  
               a(2) = (  -0.500000   0.500000   0.500000 )  
               a(3) = (  -0.500000  -0.500000   0.500000 )  

     reciprocal axes: (cart. coord. in units 2 pi/alat)
               b(1) = (  1.000000  0.000000  1.000000 )  
               b(2) = ( -1.000000  1.000000  0.000000 )  
               b(3) = (  0.000000 -1.000000  1.000000 )  


     PseudoPot. # 1 for Li read from file:
     ./pseudopot/Li.pbe-mt_fhi.UPF
     MD5 check sum: 3419f5616d131090147e867976aae79b
     Pseudo is Norm-conserving + core correction, Zval =  1.0
     Generated using FHI98PP, converted with fhi2upf.x v.5.0.2
     Using radial grid of  433 points,  3 beta functions with: 
                l(1) =   0
                l(2) =   1
                l(3) =   3

     atomic species   valence    mass     pseudopotential
     Li                1.00     6.94000     Li( 1.00)

     48 Sym. Ops., with inversion, found



   Cartesian axes

     site n.     atom                  positions (alat units)
         1        Li     tau(   1) = (   0.0000000   0.0000000   0.0000000  )

     number of k points=    44  Methfessel-Paxton smearing, width (Ry)=  0.0100
                       cart. coord. in units 2pi/alat
        k(    1) = (   0.0000000   0.0000000   0.1000000), wk =   0.0120000
        k(    2) = (   0.0000000  -0.1000000   0.2000000), wk =   0.0480000
        k(    3) = (   0.0000000  -0.2000000   0.3000000), wk =   0.0480000
        k(    4) = (   0.0000000  -0.3000000   0.4000000), wk =   0.0480000
        k(    5) = (   0.0000000  -0.4000000   0.5000000), wk =   0.0480000
        k(    6) = (  -0.1000000   0.1000000   0.1000000), wk =   0.0160000
        k(    7) = (  -0.1000000  -0.1000000   0.3000000), wk =   0.0480000
        k(    8) = (  -0.1000000  -0.2000000   0.4000000), wk =   0.0960000
        k(    9) = (  -0.1000000  -0.3000000   0.5000000), wk =   0.0960000
        k(   10) = (  -0.1000000   0.6000000  -0.4000000), wk =   0.0480000
        k(   11) = (  -0.2000000   0.2000000   0.1000000), wk =   0.0480000
        k(   12) = (  -0.2000000  -0.2000000   0.5000000), wk =   0.0480000
        k(   13) = (  -0.2000000   0.7000000  -0.4000000), wk =   0.0960000
        k(   14) = (  -0.3000000   0.3000000   0.1000000), wk =   0.0480000
        k(   15) = (  -0.3000000   0.2000000   0.2000000), wk =   0.0480000
        k(   16) = (  -0.3000000   0.7000000  -0.3000000), wk =   0.0160000
        k(   17) = (  -0.4000000   0.4000000   0.1000000), wk =   0.0480000
        k(   18) = (  -0.4000000   0.3000000   0.2000000), wk =   0.0960000
        k(   19) = (   0.5000000  -0.5000000   0.1000000), wk =   0.0240000
        k(   20) = (   0.5000000  -0.6000000   0.2000000), wk =   0.0960000
        k(   21) = (   0.5000000  -0.7000000   0.3000000), wk =   0.0480000
        k(   22) = (   0.4000000  -0.6000000   0.3000000), wk =   0.0480000
        k(   23) = (   0.0000000   0.0000000   0.3000000), wk =   0.0120000
        k(   24) = (   0.0000000  -0.1000000   0.4000000), wk =   0.0480000
        k(   25) = (   0.0000000  -0.2000000   0.5000000), wk =   0.0480000
        k(   26) = (   0.0000000  -0.3000000   0.6000000), wk =   0.0480000
        k(   27) = (  -0.1000000  -0.1000000   0.5000000), wk =   0.0480000
        k(   28) = (  -0.1000000  -0.2000000   0.6000000), wk =   0.0960000
        k(   29) = (  -0.1000000   0.7000000  -0.3000000), wk =   0.0480000
        k(   30) = (  -0.2000000   0.8000000  -0.3000000), wk =   0.0480000
        k(   31) = (  -0.3000000   0.3000000   0.3000000), wk =   0.0160000
        k(   32) = (   0.6000000  -0.6000000   0.3000000), wk =   0.0480000
        k(   33) = (   0.5000000  -0.5000000   0.3000000), wk =   0.0240000
        k(   34) = (   0.5000000  -0.6000000   0.4000000), wk =   0.0480000
        k(   35) = (   0.0000000   0.0000000   0.5000000), wk =   0.0120000
        k(   36) = (   0.0000000  -0.1000000   0.6000000), wk =   0.0480000
        k(   37) = (   0.0000000  -0.2000000   0.7000000), wk =   0.0480000
        k(   38) = (  -0.1000000  -0.1000000   0.7000000), wk =   0.0480000
        k(   39) = (  -0.1000000   0.8000000  -0.2000000), wk =   0.0480000
        k(   40) = (   0.5000000  -0.5000000   0.5000000), wk =   0.0040000
        k(   41) = (   0.0000000   0.0000000   0.7000000), wk =   0.0120000
        k(   42) = (   0.0000000  -0.1000000   0.8000000), wk =   0.0480000
        k(   43) = (  -0.1000000   0.9000000  -0.1000000), wk =   0.0160000
        k(   44) = (   0.0000000   0.0000000   0.9000000), wk =   0.0120000

     Dense  grid:     1481 G-vectors     FFT dimensions: (  15,  15,  15)

     Estimated max dynamical RAM per process >       1.87 MB

     Initial potential from superposition of free atoms

     starting charge       0.9960, renormalised to       1.0000
     Starting wfcs are   16 randomized atomic wfcs

     total cpu time spent up to now is        0.1 secs

     Self-consistent Calculation

     iteration #  1     ecut=    20.00 Ry     beta= 0.70
     Davidson diagonalization with overlap
     ethr =  1.00E-02,  avg # of iterations =  4.3

     Threshold (ethr) on eigenvalues was too large:
     Diagonalizing with lowered threshold

     Davidson diagonalization with overlap
     ethr =  2.40E-05,  avg # of iterations =  3.7

     total cpu time spent up to now is        0.2 secs

     total energy              =      -0.69465418 Ry
     estimated scf accuracy    <       0.00023975 Ry

     iteration #  2     ecut=    20.00 Ry     beta= 0.70
     Davidson diagonalization with overlap
     ethr =  2.40E-05,  avg # of iterations =  1.0

     total cpu time spent up to now is        0.2 secs

     total energy              =      -0.69465233 Ry
     estimated scf accuracy    <       0.00002116 Ry

     iteration #  3     ecut=    20.00 Ry     beta= 0.70
     Davidson diagonalization with overlap
     ethr =  2.12E-06,  avg # of iterations =  1.6

     total cpu time spent up to now is        0.3 secs

     End of self-consistent calculation

          k = 0.0000 0.0000 0.1000 (   185 PWs)   bands (ev):

    -2.8637  15.7829  15.7829  16.0917  20.0393

          k = 0.0000-0.1000 0.2000 (   188 PWs)   bands (ev):

    -2.4654  13.4076  14.3547  15.5098  18.2750

          k = 0.0000-0.2000 0.3000 (   188 PWs)   bands (ev):

    -1.6709  10.0637  12.9615  14.6224  17.4872

          k = 0.0000-0.3000 0.4000 (   186 PWs)   bands (ev):

    -0.5115   7.0186  11.9746  13.8494  16.4224

          k = 0.0000-0.4000 0.5000 (   183 PWs)   bands (ev):

     0.7669   4.7693  11.4709  13.4273  15.8870

          k =-0.1000 0.1000 0.1000 (   189 PWs)   bands (ev):

    -2.6651  14.7406  15.0865  15.0865  19.3381

          k =-0.1000-0.1000 0.3000 (   186 PWs)   bands (ev):

    -1.8656  11.5127  12.1865  14.7719  17.3404

          k =-0.1000-0.2000 0.4000 (   182 PWs)   bands (ev):

    -0.8730   8.5149  10.8804  13.9320  17.3633

          k =-0.1000-0.3000 0.5000 (   187 PWs)   bands (ev):

     0.4378   5.8146  10.1549  13.3054  17.4579

          k =-0.1000 0.6000-0.4000 (   191 PWs)   bands (ev):

     1.3868   4.3893   9.9129  13.0832  17.4018

          k =-0.2000 0.2000 0.1000 (   187 PWs)   bands (ev):

    -2.0687  11.7739  13.4877  13.7768  18.8121

          k =-0.2000-0.2000 0.5000 (   185 PWs)   bands (ev):

     0.3133   6.6923   8.9711  13.4208  17.6129

          k =-0.2000 0.7000-0.4000 (   187 PWs)   bands (ev):

     1.7350   4.6684   8.2205  13.1082  18.1851

          k =-0.3000 0.3000 0.1000 (   185 PWs)   bands (ev):

    -1.0832   8.4833  12.4331  12.6404  18.0407

          k =-0.3000 0.2000 0.2000 (   186 PWs)   bands (ev):

    -1.2737   9.8398  10.9783  12.5465  19.7385

          k =-0.3000 0.7000-0.3000 (   191 PWs)   bands (ev):

     3.2549   3.2549   7.4778  13.0468  19.5370

          k =-0.4000 0.4000 0.1000 (   185 PWs)   bands (ev):

     0.2089   5.7435  11.7696  11.9167  17.4186

          k =-0.4000 0.3000 0.2000 (   185 PWs)   bands (ev):

    -0.0980   7.0567   9.7714  11.8123  19.8425

          k = 0.5000-0.5000 0.1000 (   188 PWs)   bands (ev):

     1.1206   4.3420  11.5437  11.6707  17.1945

          k = 0.5000-0.6000 0.2000 (   185 PWs)   bands (ev):

     1.2585   4.7733   9.2519  11.4349  19.6833

          k = 0.5000-0.7000 0.3000 (   181 PWs)   bands (ev):

     1.2599   5.3922   7.9885  11.3849  21.2869

          k = 0.4000-0.6000 0.3000 (   185 PWs)   bands (ev):

     2.4608   3.9731   7.4968  11.2397  21.4295

          k = 0.0000 0.0000 0.3000 (   181 PWs)   bands (ev):

    -2.0618  12.7839  12.7839  15.0156  15.6902

          k = 0.0000-0.1000 0.4000 (   188 PWs)   bands (ev):

    -1.2558  10.1800  11.3296  14.3499  15.2388

          k = 0.0000-0.2000 0.5000 (   186 PWs)   bands (ev):

    -0.0726   7.2383  10.3157  13.6837  16.1029

          k = 0.0000-0.3000 0.6000 (   186 PWs)   bands (ev):

     1.2679   4.9609   9.8017  13.3286  17.2187

          k =-0.1000-0.1000 0.5000 (   186 PWs)   bands (ev):

    -0.2434   8.4347   9.5867  14.3562  14.4531

          k =-0.1000-0.2000 0.6000 (   184 PWs)   bands (ev):

     1.1173   6.0424   8.6893  13.8888  15.4435

          k =-0.1000 0.7000-0.3000 (   193 PWs)   bands (ev):

     2.1829   4.5621   8.4254  13.7043  16.4214

          k =-0.2000 0.8000-0.3000 (   195 PWs)   bands (ev):

     2.6209   4.5652   7.5518  14.5714  15.6024

          k =-0.3000 0.3000 0.3000 (   186 PWs)   bands (ev):

    -0.2810   8.5685   8.5685  11.1200  21.4748

          k = 0.6000-0.6000 0.3000 (   184 PWs)   bands (ev):

     1.0778   5.9163   7.7917  10.5972  22.6232

          k = 0.5000-0.5000 0.3000 (   186 PWs)   bands (ev):

     2.1950   4.3406   7.5311  10.4390  22.5290

          k = 0.5000-0.6000 0.4000 (   190 PWs)   bands (ev):

     2.6084   4.6022   6.3004  10.2276  23.7997

          k = 0.0000 0.0000 0.5000 (   184 PWs)   bands (ev):

    -0.4267   9.8529   9.8529  12.4251  14.3360

          k = 0.0000-0.1000 0.6000 (   192 PWs)   bands (ev):

     0.7994   7.6780   8.8281  12.2194  14.3783

          k = 0.0000-0.2000 0.7000 (   196 PWs)   bands (ev):

     2.2550   5.4127   8.3097  12.5087  15.2902

          k =-0.1000-0.1000 0.7000 (   193 PWs)   bands (ev):

     2.2208   6.3306   7.7074  12.2485  14.2828

          k =-0.1000 0.8000-0.2000 (   194 PWs)   bands (ev):

     3.4970   4.8946   7.3436  12.7857  14.5602

          k = 0.5000-0.5000 0.5000 (   180 PWs)   bands (ev):

     4.3381   4.3381   4.3381   9.9423  26.0011

          k = 0.0000 0.0000 0.7000 (   196 PWs)   bands (ev):

     2.0861   7.7998   7.7998  10.2477  13.8391

          k = 0.0000-0.1000 0.8000 (   192 PWs)   bands (ev):

     3.6830   6.1744   7.2801  10.6200  12.9562

          k =-0.1000 0.9000-0.1000 (   188 PWs)   bands (ev):

     5.2704   5.2704   6.8096  11.1829  11.1829

          k = 0.0000 0.0000 0.9000 (   188 PWs)   bands (ev):

     5.4074   6.7585   6.7585   9.1590  10.4357

     the Fermi energy is     0.8207 ev

!    total energy              =      -0.69465240 Ry
     estimated scf accuracy    <          7.4E-10 Ry
     smearing contrib. (-TS)   =      -0.00007779 Ry
     internal energy E=F+TS    =      -0.69457461 Ry

     The total energy is F=E-TS. E is the sum of the following terms:
     one-electron contribution =       0.44452049 Ry
     hartree contribution      =       0.00121446 Ry
     xc contribution           =      -0.56081374 Ry
     ewald contribution        =      -0.57949581 Ry

     convergence has been achieved in   3 iterations

     Forces acting on atoms (cartesian axes, Ry/au):

     atom    1 type  1   force =     0.00000000    0.00000000    0.00000000

     Total force =     0.000000     Total SCF correction =     0.000000


     Computing stress (Cartesian axis) and pressure

          total   stress  (Ry/bohr**3)                   (kbar)     P=       10.53
   0.00007159  -0.00000000   0.00000000           10.53       -0.00        0.00
  -0.00000000   0.00007159   0.00000000           -0.00       10.53        0.00
   0.00000000   0.00000000   0.00007159            0.00        0.00       10.53


     Writing all to output data dir ./QE-outdir/li.save/ :
     XML data file, charge density, pseudopotentials, collected wavefunctions

     init_run     :      0.04s CPU      0.06s WALL (       1 calls)
     electrons    :      0.13s CPU      0.21s WALL (       1 calls)
     forces       :      0.00s CPU      0.00s WALL (       1 calls)
     stress       :      0.02s CPU      0.02s WALL (       1 calls)

     Called by init_run:
     wfcinit      :      0.03s CPU      0.04s WALL (       1 calls)
     potinit      :      0.00s CPU      0.00s WALL (       1 calls)
     hinit0       :      0.01s CPU      0.01s WALL (       1 calls)

     Called by electrons:
     c_bands      :      0.11s CPU      0.20s WALL (       4 calls)
     sum_band     :      0.01s CPU      0.01s WALL (       4 calls)
     v_of_rho     :      0.00s CPU      0.00s WALL (       4 calls)
     mix_rho      :      0.00s CPU      0.00s WALL (       4 calls)

     Called by c_bands:
     init_us_2    :      0.01s CPU      0.01s WALL (     484 calls)
     cegterg      :      0.11s CPU      0.19s WALL (     176 calls)

     Called by *egterg:
     cdiaghg      :      0.07s CPU      0.16s WALL (     598 calls)
     h_psi        :      0.05s CPU      0.06s WALL (     686 calls)
     g_psi        :      0.00s CPU      0.00s WALL (     466 calls)

     Called by h_psi:
     h_psi:calbec :      0.00s CPU      0.00s WALL (     686 calls)
     vloc_psi     :      0.05s CPU      0.05s WALL (     686 calls)
                                        0.00s GPU  (     686 calls)
     add_vuspsi   :      0.00s CPU      0.00s WALL (     686 calls)

     General routines
     calbec       :      0.01s CPU      0.01s WALL (    1434 calls)
     fft          :      0.00s CPU      0.00s WALL (      65 calls)
     ffts         :      0.00s CPU      0.00s WALL (       4 calls)
     fftw         :      0.04s CPU      0.04s WALL (    7214 calls)

     Parallel routines

     PWSCF        :      0.20s CPU      0.30s WALL


   This run was terminated on:  23:33:18  31Jan2026            

=------------------------------------------------------------------------------=
   JOB DONE.
=------------------------------------------------------------------------------=
