
     Program PWSCF v.7.5 starts on 31Jan2026 at 23:33:16 

     This program is part of the open-source Quantum ESPRESSO suite
     for quantum simulation of materials; please cite
         "P. Giannozzi et al., J. Phys.:Condens. Matter 21 395502 (2009);
         "P. Giannozzi et al., J. Phys.:Condens. Matter 29 465901 (2017);
         "P. Giannozzi et al., J. Chem. Phys. 152 154105 (2020);
          URL http://www.quantum-espresso.org", 
     in publications or presentations arising from this work. More details at
     http://www.quantum-espresso.org/quote

     Parallel version (MPI), running on     1 processors

     MPI processes distributed on     1 nodes
     0 MiB available memory on the printing compute node when the environment starts

     Waiting for input...
     Reading input from standard input
     Message from routine read_cards :
     DEPRECATED: no units specified in ATOMIC_POSITIONS card
     Message from routine read_cards :
     ATOMIC_POSITIONS: units set to alat

     Current dimensions of program PWSCF are:
     Max number of different atomic species (ntypx) = 10
     Max number of k-points (npk) =  40000
     Max angular momentum in pseudopotentials (lmaxx) =  4
     file Li.pbe-mt_fhi.UPF: wavefunction(s)  2p 4f renormalized

     Subspace diagonalization in iterative solution of the eigenvalue problem:
     a serial algorithm will be used


     G-vector sticks info
     --------------------
     sticks:   dense  smooth     PW     G-vecs:    dense   smooth      PW
     Sum         173     173     63                 1433     1433     321

     Using Slab Decomposition



     bravais-lattice index     =            3
     lattice parameter (alat)  =       6.1600  a.u.
     unit-cell volume          =     116.8724 (a.u.)^3
     number of atoms/cell      =            1
     number of atomic types    =            1
     number of electrons       =         1.00
     number of Kohn-Sham states=            5
     kinetic-energy cutoff     =      20.0000  Ry
     charge density cutoff     =      80.0000  Ry
     scf convergence threshold =      1.0E-08
     mixing beta               =       0.7000
     number of iterations used =            8  plain     mixing
     Exchange-correlation= PBE
                           (   1   4   3   4   0   0   0)

     celldm(1)=   6.160000  celldm(2)=   0.000000  celldm(3)=   0.000000
     celldm(4)=   0.000000  celldm(5)=   0.000000  celldm(6)=   0.000000

     crystal axes: (cart. coord. in units of alat)
               a(1) = (   0.500000   0.500000   0.500000 )  
               a(2) = (  -0.500000   0.500000   0.500000 )  
               a(3) = (  -0.500000  -0.500000   0.500000 )  

     reciprocal axes: (cart. coord. in units 2 pi/alat)
               b(1) = (  1.000000  0.000000  1.000000 )  
               b(2) = ( -1.000000  1.000000  0.000000 )  
               b(3) = (  0.000000 -1.000000  1.000000 )  


     PseudoPot. # 1 for Li read from file:
     ./pseudopot/Li.pbe-mt_fhi.UPF
     MD5 check sum: 3419f5616d131090147e867976aae79b
     Pseudo is Norm-conserving + core correction, Zval =  1.0
     Generated using FHI98PP, converted with fhi2upf.x v.5.0.2
     Using radial grid of  433 points,  3 beta functions with: 
                l(1) =   0
                l(2) =   1
                l(3) =   3

     atomic species   valence    mass     pseudopotential
     Li                1.00     6.94000     Li( 1.00)

     48 Sym. Ops., with inversion, found



   Cartesian axes

     site n.     atom                  positions (alat units)
         1        Li     tau(   1) = (   0.0000000   0.0000000   0.0000000  )

     number of k points=    44  Methfessel-Paxton smearing, width (Ry)=  0.0100
                       cart. coord. in units 2pi/alat
        k(    1) = (   0.0000000   0.0000000   0.1000000), wk =   0.0120000
        k(    2) = (   0.0000000  -0.1000000   0.2000000), wk =   0.0480000
        k(    3) = (   0.0000000  -0.2000000   0.3000000), wk =   0.0480000
        k(    4) = (   0.0000000  -0.3000000   0.4000000), wk =   0.0480000
        k(    5) = (   0.0000000  -0.4000000   0.5000000), wk =   0.0480000
        k(    6) = (  -0.1000000   0.1000000   0.1000000), wk =   0.0160000
        k(    7) = (  -0.1000000  -0.1000000   0.3000000), wk =   0.0480000
        k(    8) = (  -0.1000000  -0.2000000   0.4000000), wk =   0.0960000
        k(    9) = (  -0.1000000  -0.3000000   0.5000000), wk =   0.0960000
        k(   10) = (  -0.1000000   0.6000000  -0.4000000), wk =   0.0480000
        k(   11) = (  -0.2000000   0.2000000   0.1000000), wk =   0.0480000
        k(   12) = (  -0.2000000  -0.2000000   0.5000000), wk =   0.0480000
        k(   13) = (  -0.2000000   0.7000000  -0.4000000), wk =   0.0960000
        k(   14) = (  -0.3000000   0.3000000   0.1000000), wk =   0.0480000
        k(   15) = (  -0.3000000   0.2000000   0.2000000), wk =   0.0480000
        k(   16) = (  -0.3000000   0.7000000  -0.3000000), wk =   0.0160000
        k(   17) = (  -0.4000000   0.4000000   0.1000000), wk =   0.0480000
        k(   18) = (  -0.4000000   0.3000000   0.2000000), wk =   0.0960000
        k(   19) = (   0.5000000  -0.5000000   0.1000000), wk =   0.0240000
        k(   20) = (   0.5000000  -0.6000000   0.2000000), wk =   0.0960000
        k(   21) = (   0.5000000  -0.7000000   0.3000000), wk =   0.0480000
        k(   22) = (   0.4000000  -0.6000000   0.3000000), wk =   0.0480000
        k(   23) = (   0.0000000   0.0000000   0.3000000), wk =   0.0120000
        k(   24) = (   0.0000000  -0.1000000   0.4000000), wk =   0.0480000
        k(   25) = (   0.0000000  -0.2000000   0.5000000), wk =   0.0480000
        k(   26) = (   0.0000000  -0.3000000   0.6000000), wk =   0.0480000
        k(   27) = (  -0.1000000  -0.1000000   0.5000000), wk =   0.0480000
        k(   28) = (  -0.1000000  -0.2000000   0.6000000), wk =   0.0960000
        k(   29) = (  -0.1000000   0.7000000  -0.3000000), wk =   0.0480000
        k(   30) = (  -0.2000000   0.8000000  -0.3000000), wk =   0.0480000
        k(   31) = (  -0.3000000   0.3000000   0.3000000), wk =   0.0160000
        k(   32) = (   0.6000000  -0.6000000   0.3000000), wk =   0.0480000
        k(   33) = (   0.5000000  -0.5000000   0.3000000), wk =   0.0240000
        k(   34) = (   0.5000000  -0.6000000   0.4000000), wk =   0.0480000
        k(   35) = (   0.0000000   0.0000000   0.5000000), wk =   0.0120000
        k(   36) = (   0.0000000  -0.1000000   0.6000000), wk =   0.0480000
        k(   37) = (   0.0000000  -0.2000000   0.7000000), wk =   0.0480000
        k(   38) = (  -0.1000000  -0.1000000   0.7000000), wk =   0.0480000
        k(   39) = (  -0.1000000   0.8000000  -0.2000000), wk =   0.0480000
        k(   40) = (   0.5000000  -0.5000000   0.5000000), wk =   0.0040000
        k(   41) = (   0.0000000   0.0000000   0.7000000), wk =   0.0120000
        k(   42) = (   0.0000000  -0.1000000   0.8000000), wk =   0.0480000
        k(   43) = (  -0.1000000   0.9000000  -0.1000000), wk =   0.0160000
        k(   44) = (   0.0000000   0.0000000   0.9000000), wk =   0.0120000

     Dense  grid:     1433 G-vectors     FFT dimensions: (  15,  15,  15)

     Estimated max dynamical RAM per process >       1.81 MB

     Initial potential from superposition of free atoms

     starting charge       0.9960, renormalised to       1.0000
     Starting wfcs are   16 randomized atomic wfcs

     total cpu time spent up to now is        0.1 secs

     Self-consistent Calculation

     iteration #  1     ecut=    20.00 Ry     beta= 0.70
     Davidson diagonalization with overlap
     ethr =  1.00E-02,  avg # of iterations =  4.5

     Threshold (ethr) on eigenvalues was too large:
     Diagonalizing with lowered threshold

     Davidson diagonalization with overlap
     ethr =  2.69E-05,  avg # of iterations =  3.5

     total cpu time spent up to now is        0.2 secs

     total energy              =      -0.69390137 Ry
     estimated scf accuracy    <       0.00027069 Ry

     iteration #  2     ecut=    20.00 Ry     beta= 0.70
     Davidson diagonalization with overlap
     ethr =  2.71E-05,  avg # of iterations =  1.0

     total cpu time spent up to now is        0.2 secs

     total energy              =      -0.69389895 Ry
     estimated scf accuracy    <       0.00002382 Ry

     iteration #  3     ecut=    20.00 Ry     beta= 0.70
     Davidson diagonalization with overlap
     ethr =  2.38E-06,  avg # of iterations =  1.5

     total cpu time spent up to now is        0.3 secs

     End of self-consistent calculation

          k = 0.0000 0.0000 0.1000 (   181 PWs)   bands (ev):

    -2.7688  16.5651  16.5652  16.8948  20.9221

          k = 0.0000-0.1000 0.2000 (   173 PWs)   bands (ev):

    -2.3627  14.0837  15.0711  16.2833  19.1081

          k = 0.0000-0.2000 0.3000 (   177 PWs)   bands (ev):

    -1.5528  10.6076  13.6176  15.3483  18.2834

          k = 0.0000-0.3000 0.4000 (   178 PWs)   bands (ev):

    -0.3714   7.4577  12.5880  14.5386  17.1760

          k = 0.0000-0.4000 0.5000 (   182 PWs)   bands (ev):

     0.9213   5.1515  12.0627  14.0965  16.6194

          k =-0.1000 0.1000 0.1000 (   177 PWs)   bands (ev):

    -2.5664  15.4899  15.8277  15.8277  20.2196

          k =-0.1000-0.1000 0.3000 (   172 PWs)   bands (ev):

    -1.7510  12.0916  12.8310  15.5089  18.1361

          k =-0.1000-0.2000 0.4000 (   176 PWs)   bands (ev):

    -0.7378   8.9869  11.4697  14.6251  18.1692

          k =-0.1000-0.3000 0.5000 (   177 PWs)   bands (ev):

     0.5977   6.2032  10.7150  13.9694  18.2851

          k =-0.1000 0.6000-0.4000 (   174 PWs)   bands (ev):

     1.5538   4.7511  10.4635  13.7371  18.2304

          k =-0.2000 0.2000 0.1000 (   175 PWs)   bands (ev):

    -1.9586  12.3781  14.1841  14.4513  19.6817

          k =-0.2000-0.2000 0.5000 (   175 PWs)   bands (ev):

     0.4755   7.0714   9.5255  14.0917  18.4212

          k =-0.2000 0.7000-0.4000 (   175 PWs)   bands (ev):

     1.9270   4.9842   8.7546  13.7662  19.0281

          k =-0.3000 0.3000 0.1000 (   177 PWs)   bands (ev):

    -0.9537   8.9658  13.0893  13.2627  18.8730

          k =-0.3000 0.2000 0.2000 (   175 PWs)   bands (ev):

    -1.1474  10.3465  11.5690  13.2075  20.6639

          k =-0.3000 0.7000-0.3000 (   179 PWs)   bands (ev):

     3.4961   3.4961   8.0134  13.7044  20.4205

          k =-0.4000 0.4000 0.1000 (   179 PWs)   bands (ev):

     0.3606   6.1405  12.4002  12.5076  18.2225

          k =-0.4000 0.3000 0.2000 (   175 PWs)   bands (ev):

     0.0530   7.4675  10.3097  12.4561  20.7691

          k = 0.5000-0.5000 0.1000 (   174 PWs)   bands (ev):

     1.2770   4.7137  12.1669  12.2510  17.9887

          k = 0.5000-0.6000 0.2000 (   173 PWs)   bands (ev):

     1.4323   5.1223   9.7667  12.0693  20.6005

          k = 0.5000-0.7000 0.3000 (   173 PWs)   bands (ev):

     1.4437   5.7183   8.4884  12.0274  22.2522

          k = 0.4000-0.6000 0.3000 (   175 PWs)   bands (ev):

     2.6699   4.2557   7.9843  11.8822  22.4226

          k = 0.0000 0.0000 0.3000 (   177 PWs)   bands (ev):

    -1.9507  13.4255  13.4255  15.7967  16.4019

          k = 0.0000-0.1000 0.4000 (   175 PWs)   bands (ev):

    -1.1273  10.7182  11.9108  15.0810  15.9715

          k = 0.0000-0.2000 0.5000 (   177 PWs)   bands (ev):

     0.0813   7.6721  10.8552  14.3973  16.8664

          k = 0.0000-0.3000 0.6000 (   175 PWs)   bands (ev):

     1.4426   5.3334  10.3195  14.0320  18.0324

          k =-0.1000-0.1000 0.5000 (   178 PWs)   bands (ev):

    -0.0911   8.8866  10.1243  15.0279  15.2165

          k =-0.1000-0.2000 0.6000 (   181 PWs)   bands (ev):

     1.3007   6.4144   9.1972  14.6013  16.1825

          k =-0.1000 0.7000-0.3000 (   177 PWs)   bands (ev):

     2.3817   4.9022   8.9239  14.4136  17.1992

          k =-0.2000 0.8000-0.3000 (   181 PWs)   bands (ev):

     2.8450   4.8593   8.0612  15.3198  16.3269

          k =-0.3000 0.3000 0.3000 (   177 PWs)   bands (ev):

    -0.1329   9.0222   9.0222  11.7974  22.4730

          k = 0.6000-0.6000 0.3000 (   178 PWs)   bands (ev):

     1.2573   6.2749   8.2135  11.2747  23.6684

          k = 0.5000-0.5000 0.3000 (   172 PWs)   bands (ev):

     2.3937   4.6594   7.9424  11.1166  23.5649

          k = 0.5000-0.6000 0.4000 (   171 PWs)   bands (ev):

     2.8314   4.8965   6.6776  10.9183  24.9044

          k = 0.0000 0.0000 0.5000 (   168 PWs)   bands (ev):

    -0.2769  10.3729  10.3729  13.0083  15.1350

          k = 0.0000-0.1000 0.6000 (   178 PWs)   bands (ev):

     0.9807   8.1131   9.3061  12.8136  15.1752

          k = 0.0000-0.2000 0.7000 (   178 PWs)   bands (ev):

     2.4687   5.7778   8.7663  13.1616  16.0736

          k =-0.1000-0.1000 0.7000 (   177 PWs)   bands (ev):

     2.4421   6.6976   8.1681  12.8357  15.0687

          k =-0.1000 0.8000-0.2000 (   181 PWs)   bands (ev):

     3.7485   5.2176   7.7982  13.4153  15.2423

          k = 0.5000-0.5000 0.5000 (   180 PWs)   bands (ev):

     4.6214   4.6214   4.6214  10.6518  27.1984

          k = 0.0000 0.0000 0.7000 (   180 PWs)   bands (ev):

     2.3078   8.2353   8.2353  10.7453  14.6222

          k = 0.0000-0.1000 0.8000 (   178 PWs)   bands (ev):

     3.9527   6.5494   7.6939  11.1467  13.6010

          k =-0.1000 0.9000-0.1000 (   176 PWs)   bands (ev):

     5.5948   5.5948   7.2264  11.7276  11.7276

          k = 0.0000 0.0000 0.9000 (   180 PWs)   bands (ev):

     5.7430   7.1513   7.1513   9.6137  10.9529

     the Fermi energy is     0.9903 ev

!    total energy              =      -0.69389902 Ry
     estimated scf accuracy    <          6.5E-10 Ry
     smearing contrib. (-TS)   =      -0.00007164 Ry
     internal energy E=F+TS    =      -0.69382738 Ry

     The total energy is F=E-TS. E is the sum of the following terms:
     one-electron contribution =       0.46399658 Ry
     hartree contribution      =       0.00131550 Ry
     xc contribution           =      -0.56835478 Ry
     ewald contribution        =      -0.59078468 Ry

     convergence has been achieved in   3 iterations

     Forces acting on atoms (cartesian axes, Ry/au):

     atom    1 type  1   force =     0.00000000    0.00000000    0.00000000

     Total force =     0.000000     Total SCF correction =     0.000000


     Computing stress (Cartesian axis) and pressure

          total   stress  (Ry/bohr**3)                   (kbar)     P=       21.22
   0.00014428   0.00000000  -0.00000000           21.22        0.00       -0.00
   0.00000000   0.00014428   0.00000000            0.00       21.22        0.00
  -0.00000000   0.00000000   0.00014428           -0.00        0.00       21.22


     Writing all to output data dir ./QE-outdir/li.save/ :
     XML data file, charge density, pseudopotentials, collected wavefunctions

     init_run     :      0.04s CPU      0.06s WALL (       1 calls)
     electrons    :      0.12s CPU      0.21s WALL (       1 calls)
     forces       :      0.00s CPU      0.00s WALL (       1 calls)
     stress       :      0.02s CPU      0.02s WALL (       1 calls)

     Called by init_run:
     wfcinit      :      0.03s CPU      0.04s WALL (       1 calls)
     potinit      :      0.00s CPU      0.00s WALL (       1 calls)
     hinit0       :      0.01s CPU      0.01s WALL (       1 calls)

     Called by electrons:
     c_bands      :      0.11s CPU      0.20s WALL (       4 calls)
     sum_band     :      0.01s CPU      0.01s WALL (       4 calls)
     v_of_rho     :      0.00s CPU      0.00s WALL (       4 calls)
     mix_rho      :      0.00s CPU      0.00s WALL (       4 calls)

     Called by c_bands:
     init_us_2    :      0.01s CPU      0.01s WALL (     484 calls)
     cegterg      :      0.11s CPU      0.19s WALL (     176 calls)

     Called by *egterg:
     cdiaghg      :      0.07s CPU      0.16s WALL (     595 calls)
     h_psi        :      0.05s CPU      0.05s WALL (     683 calls)
     g_psi        :      0.00s CPU      0.00s WALL (     463 calls)

     Called by h_psi:
     h_psi:calbec :      0.00s CPU      0.00s WALL (     683 calls)
     vloc_psi     :      0.05s CPU      0.05s WALL (     683 calls)
                                        0.00s GPU  (     683 calls)
     add_vuspsi   :      0.00s CPU      0.00s WALL (     683 calls)

     General routines
     calbec       :      0.01s CPU      0.01s WALL (    1431 calls)
     fft          :      0.00s CPU      0.00s WALL (      65 calls)
     ffts         :      0.00s CPU      0.00s WALL (       4 calls)
     fftw         :      0.04s CPU      0.04s WALL (    7168 calls)

     Parallel routines

     PWSCF        :      0.19s CPU      0.30s WALL


   This run was terminated on:  23:33:16  31Jan2026            

=------------------------------------------------------------------------------=
   JOB DONE.
=------------------------------------------------------------------------------=
