
     Program PWSCF v.7.5 starts on 31Jan2026 at 23:33:17 

     This program is part of the open-source Quantum ESPRESSO suite
     for quantum simulation of materials; please cite
         "P. Giannozzi et al., J. Phys.:Condens. Matter 21 395502 (2009);
         "P. Giannozzi et al., J. Phys.:Condens. Matter 29 465901 (2017);
         "P. Giannozzi et al., J. Chem. Phys. 152 154105 (2020);
          URL http://www.quantum-espresso.org", 
     in publications or presentations arising from this work. More details at
     http://www.quantum-espresso.org/quote

     Parallel version (MPI), running on     1 processors

     MPI processes distributed on     1 nodes
     0 MiB available memory on the printing compute node when the environment starts

     Waiting for input...
     Reading input from standard input
     Message from routine read_cards :
     DEPRECATED: no units specified in ATOMIC_POSITIONS card
     Message from routine read_cards :
     ATOMIC_POSITIONS: units set to alat

     Current dimensions of program PWSCF are:
     Max number of different atomic species (ntypx) = 10
     Max number of k-points (npk) =  40000
     Max angular momentum in pseudopotentials (lmaxx) =  4
     file Li.pbe-mt_fhi.UPF: wavefunction(s)  2p 4f renormalized

     Subspace diagonalization in iterative solution of the eigenvalue problem:
     a serial algorithm will be used


     G-vector sticks info
     --------------------
     sticks:   dense  smooth     PW     G-vecs:    dense   smooth      PW
     Sum         173     173     63                 1481     1481     321

     Using Slab Decomposition



     bravais-lattice index     =            3
     lattice parameter (alat)  =       6.2400  a.u.
     unit-cell volume          =     121.4853 (a.u.)^3
     number of atoms/cell      =            1
     number of atomic types    =            1
     number of electrons       =         1.00
     number of Kohn-Sham states=            5
     kinetic-energy cutoff     =      20.0000  Ry
     charge density cutoff     =      80.0000  Ry
     scf convergence threshold =      1.0E-08
     mixing beta               =       0.7000
     number of iterations used =            8  plain     mixing
     Exchange-correlation= PBE
                           (   1   4   3   4   0   0   0)

     celldm(1)=   6.240000  celldm(2)=   0.000000  celldm(3)=   0.000000
     celldm(4)=   0.000000  celldm(5)=   0.000000  celldm(6)=   0.000000

     crystal axes: (cart. coord. in units of alat)
               a(1) = (   0.500000   0.500000   0.500000 )  
               a(2) = (  -0.500000   0.500000   0.500000 )  
               a(3) = (  -0.500000  -0.500000   0.500000 )  

     reciprocal axes: (cart. coord. in units 2 pi/alat)
               b(1) = (  1.000000  0.000000  1.000000 )  
               b(2) = ( -1.000000  1.000000  0.000000 )  
               b(3) = (  0.000000 -1.000000  1.000000 )  


     PseudoPot. # 1 for Li read from file:
     ./pseudopot/Li.pbe-mt_fhi.UPF
     MD5 check sum: 3419f5616d131090147e867976aae79b
     Pseudo is Norm-conserving + core correction, Zval =  1.0
     Generated using FHI98PP, converted with fhi2upf.x v.5.0.2
     Using radial grid of  433 points,  3 beta functions with: 
                l(1) =   0
                l(2) =   1
                l(3) =   3

     atomic species   valence    mass     pseudopotential
     Li                1.00     6.94000     Li( 1.00)

     48 Sym. Ops., with inversion, found



   Cartesian axes

     site n.     atom                  positions (alat units)
         1        Li     tau(   1) = (   0.0000000   0.0000000   0.0000000  )

     number of k points=    44  Methfessel-Paxton smearing, width (Ry)=  0.0100
                       cart. coord. in units 2pi/alat
        k(    1) = (   0.0000000   0.0000000   0.1000000), wk =   0.0120000
        k(    2) = (   0.0000000  -0.1000000   0.2000000), wk =   0.0480000
        k(    3) = (   0.0000000  -0.2000000   0.3000000), wk =   0.0480000
        k(    4) = (   0.0000000  -0.3000000   0.4000000), wk =   0.0480000
        k(    5) = (   0.0000000  -0.4000000   0.5000000), wk =   0.0480000
        k(    6) = (  -0.1000000   0.1000000   0.1000000), wk =   0.0160000
        k(    7) = (  -0.1000000  -0.1000000   0.3000000), wk =   0.0480000
        k(    8) = (  -0.1000000  -0.2000000   0.4000000), wk =   0.0960000
        k(    9) = (  -0.1000000  -0.3000000   0.5000000), wk =   0.0960000
        k(   10) = (  -0.1000000   0.6000000  -0.4000000), wk =   0.0480000
        k(   11) = (  -0.2000000   0.2000000   0.1000000), wk =   0.0480000
        k(   12) = (  -0.2000000  -0.2000000   0.5000000), wk =   0.0480000
        k(   13) = (  -0.2000000   0.7000000  -0.4000000), wk =   0.0960000
        k(   14) = (  -0.3000000   0.3000000   0.1000000), wk =   0.0480000
        k(   15) = (  -0.3000000   0.2000000   0.2000000), wk =   0.0480000
        k(   16) = (  -0.3000000   0.7000000  -0.3000000), wk =   0.0160000
        k(   17) = (  -0.4000000   0.4000000   0.1000000), wk =   0.0480000
        k(   18) = (  -0.4000000   0.3000000   0.2000000), wk =   0.0960000
        k(   19) = (   0.5000000  -0.5000000   0.1000000), wk =   0.0240000
        k(   20) = (   0.5000000  -0.6000000   0.2000000), wk =   0.0960000
        k(   21) = (   0.5000000  -0.7000000   0.3000000), wk =   0.0480000
        k(   22) = (   0.4000000  -0.6000000   0.3000000), wk =   0.0480000
        k(   23) = (   0.0000000   0.0000000   0.3000000), wk =   0.0120000
        k(   24) = (   0.0000000  -0.1000000   0.4000000), wk =   0.0480000
        k(   25) = (   0.0000000  -0.2000000   0.5000000), wk =   0.0480000
        k(   26) = (   0.0000000  -0.3000000   0.6000000), wk =   0.0480000
        k(   27) = (  -0.1000000  -0.1000000   0.5000000), wk =   0.0480000
        k(   28) = (  -0.1000000  -0.2000000   0.6000000), wk =   0.0960000
        k(   29) = (  -0.1000000   0.7000000  -0.3000000), wk =   0.0480000
        k(   30) = (  -0.2000000   0.8000000  -0.3000000), wk =   0.0480000
        k(   31) = (  -0.3000000   0.3000000   0.3000000), wk =   0.0160000
        k(   32) = (   0.6000000  -0.6000000   0.3000000), wk =   0.0480000
        k(   33) = (   0.5000000  -0.5000000   0.3000000), wk =   0.0240000
        k(   34) = (   0.5000000  -0.6000000   0.4000000), wk =   0.0480000
        k(   35) = (   0.0000000   0.0000000   0.5000000), wk =   0.0120000
        k(   36) = (   0.0000000  -0.1000000   0.6000000), wk =   0.0480000
        k(   37) = (   0.0000000  -0.2000000   0.7000000), wk =   0.0480000
        k(   38) = (  -0.1000000  -0.1000000   0.7000000), wk =   0.0480000
        k(   39) = (  -0.1000000   0.8000000  -0.2000000), wk =   0.0480000
        k(   40) = (   0.5000000  -0.5000000   0.5000000), wk =   0.0040000
        k(   41) = (   0.0000000   0.0000000   0.7000000), wk =   0.0120000
        k(   42) = (   0.0000000  -0.1000000   0.8000000), wk =   0.0480000
        k(   43) = (  -0.1000000   0.9000000  -0.1000000), wk =   0.0160000
        k(   44) = (   0.0000000   0.0000000   0.9000000), wk =   0.0120000

     Dense  grid:     1481 G-vectors     FFT dimensions: (  15,  15,  15)

     Estimated max dynamical RAM per process >       1.86 MB

     Initial potential from superposition of free atoms

     starting charge       0.9960, renormalised to       1.0000
     Starting wfcs are   16 randomized atomic wfcs

     total cpu time spent up to now is        0.1 secs

     Self-consistent Calculation

     iteration #  1     ecut=    20.00 Ry     beta= 0.70
     Davidson diagonalization with overlap
     ethr =  1.00E-02,  avg # of iterations =  4.2

     Threshold (ethr) on eigenvalues was too large:
     Diagonalizing with lowered threshold

     Davidson diagonalization with overlap
     ethr =  2.49E-05,  avg # of iterations =  3.9

     total cpu time spent up to now is        0.2 secs

     total energy              =      -0.69445678 Ry
     estimated scf accuracy    <       0.00024958 Ry

     iteration #  2     ecut=    20.00 Ry     beta= 0.70
     Davidson diagonalization with overlap
     ethr =  2.50E-05,  avg # of iterations =  1.0

     total cpu time spent up to now is        0.2 secs

     total energy              =      -0.69445481 Ry
     estimated scf accuracy    <       0.00002193 Ry

     iteration #  3     ecut=    20.00 Ry     beta= 0.70
     Davidson diagonalization with overlap
     ethr =  2.19E-06,  avg # of iterations =  1.2

     total cpu time spent up to now is        0.3 secs

     End of self-consistent calculation

          k = 0.0000 0.0000 0.1000 (   185 PWs)   bands (ev):

    -2.8335  16.0381  16.0382  16.3539  20.3279

          k = 0.0000-0.1000 0.2000 (   185 PWs)   bands (ev):

    -2.4325  13.6285  14.5881  15.7622  18.5472

          k = 0.0000-0.2000 0.3000 (   183 PWs)   bands (ev):

    -1.6328  10.2415  13.1759  14.8599  17.7474

          k = 0.0000-0.3000 0.4000 (   182 PWs)   bands (ev):

    -0.4660   7.1620  12.1750  14.0749  16.6687

          k = 0.0000-0.4000 0.5000 (   183 PWs)   bands (ev):

     0.8173   4.8939  11.6643  13.6459  16.1264

          k =-0.1000 0.1000 0.1000 (   189 PWs)   bands (ev):

    -2.6336  14.9849  15.3282  15.3282  19.6258

          k =-0.1000-0.1000 0.3000 (   186 PWs)   bands (ev):

    -1.8288  11.7016  12.3966  15.0122  17.6002

          k =-0.1000-0.2000 0.4000 (   181 PWs)   bands (ev):

    -0.8292   8.6691  11.0729  14.1582  17.6266

          k =-0.1000-0.3000 0.5000 (   183 PWs)   bands (ev):

     0.4899   5.9414  10.3379  13.5225  17.7283

          k =-0.1000 0.6000-0.4000 (   180 PWs)   bands (ev):

     1.4414   4.5074  10.0933  13.2974  17.6727

          k =-0.2000 0.2000 0.1000 (   183 PWs)   bands (ev):

    -2.0333  11.9714  13.7150  13.9971  19.0960

          k =-0.2000-0.2000 0.5000 (   179 PWs)   bands (ev):

     0.3661   6.8163   9.1522  13.6405  17.8775

          k =-0.2000 0.7000-0.4000 (   184 PWs)   bands (ev):

     1.7976   4.7715   8.3948  13.3230  18.4605

          k =-0.3000 0.3000 0.1000 (   179 PWs)   bands (ev):

    -1.0413   8.6411  12.6478  12.8440  18.3129

          k =-0.3000 0.2000 0.2000 (   179 PWs)   bands (ev):

    -1.2328  10.0057  11.1717  12.7624  20.0414

          k =-0.3000 0.7000-0.3000 (   185 PWs)   bands (ev):

     3.3338   3.3338   7.6525  13.2617  19.8259

          k =-0.4000 0.4000 0.1000 (   183 PWs)   bands (ev):

     0.2583   5.8731  11.9754  12.1098  17.6813

          k =-0.4000 0.3000 0.2000 (   181 PWs)   bands (ev):

    -0.0489   7.1911   9.9475  12.0224  20.1453

          k = 0.5000-0.5000 0.1000 (   188 PWs)   bands (ev):

     1.1714   4.4631  11.7467  11.8603  17.4540

          k = 0.5000-0.6000 0.2000 (   182 PWs)   bands (ev):

     1.3152   4.8872   9.4202  11.6419  19.9834

          k = 0.5000-0.7000 0.3000 (   181 PWs)   bands (ev):

     1.3198   5.4986   8.1518  11.5943  21.6019

          k = 0.4000-0.6000 0.3000 (   179 PWs)   bands (ev):

     2.5291   4.0655   7.6562  11.4495  21.7544

          k = 0.0000 0.0000 0.3000 (   177 PWs)   bands (ev):

    -2.0260  12.9938  12.9938  15.2712  15.9228

          k = 0.0000-0.1000 0.4000 (   181 PWs)   bands (ev):

    -1.2142  10.3561  11.5199  14.5891  15.4779

          k = 0.0000-0.2000 0.5000 (   185 PWs)   bands (ev):

    -0.0226   7.3799  10.4917  13.9168  16.3526

          k = 0.0000-0.3000 0.6000 (   183 PWs)   bands (ev):

     1.3249   5.0824   9.9707  13.5584  17.4845

          k =-0.1000-0.1000 0.5000 (   182 PWs)   bands (ev):

    -0.1939   8.5826   9.7623  14.5758  14.7024

          k =-0.1000-0.2000 0.6000 (   184 PWs)   bands (ev):

     1.1771   6.1639   8.8551  14.1217  15.6846

          k =-0.1000 0.7000-0.3000 (   181 PWs)   bands (ev):

     2.2481   4.6733   8.5887  13.9363  16.6761

          k =-0.2000 0.8000-0.3000 (   187 PWs)   bands (ev):

     2.6942   4.6615   7.7180  14.8161  15.8393

          k =-0.3000 0.3000 0.3000 (   183 PWs)   bands (ev):

    -0.2329   8.7168   8.7168  11.3410  21.8010

          k = 0.6000-0.6000 0.3000 (   182 PWs)   bands (ev):

     1.1363   6.0335   7.9296  10.8182  22.9643

          k = 0.5000-0.5000 0.3000 (   176 PWs)   bands (ev):

     2.2601   4.4448   7.6658  10.6604  22.8683

          k = 0.5000-0.6000 0.4000 (   179 PWs)   bands (ev):

     2.6815   4.6984   6.4238  10.4528  24.1617

          k = 0.0000 0.0000 0.5000 (   184 PWs)   bands (ev):

    -0.3781  10.0223  10.0223  12.6157  14.5966

          k = 0.0000-0.1000 0.6000 (   186 PWs)   bands (ev):

     0.8585   7.8200   8.9846  12.4136  14.6387

          k = 0.0000-0.2000 0.7000 (   187 PWs)   bands (ev):

     2.3248   5.5320   8.4593  12.7223  15.5464

          k =-0.1000-0.1000 0.7000 (   193 PWs)   bands (ev):

     2.2929   6.4503   7.8576  12.4403  14.5394

          k =-0.1000 0.8000-0.2000 (   192 PWs)   bands (ev):

     3.5790   5.0000   7.4921  12.9915  14.7830

          k = 0.5000-0.5000 0.5000 (   180 PWs)   bands (ev):

     4.4306   4.4306   4.4306  10.1735  26.3922

          k = 0.0000 0.0000 0.7000 (   188 PWs)   bands (ev):

     2.1585   7.9424   7.9424  10.4103  14.0953

          k = 0.0000-0.1000 0.8000 (   188 PWs)   bands (ev):

     3.7711   6.2970   7.4153  10.7921  13.1671

          k =-0.1000 0.9000-0.1000 (   188 PWs)   bands (ev):

     5.3762   5.3762   6.9455  11.3608  11.3608

          k = 0.0000 0.0000 0.9000 (   188 PWs)   bands (ev):

     5.5169   6.8867   6.8867   9.3075  10.6046

     the Fermi energy is     0.8758 ev

!    total energy              =      -0.69445488 Ry
     estimated scf accuracy    <          7.9E-10 Ry
     smearing contrib. (-TS)   =      -0.00007668 Ry
     internal energy E=F+TS    =      -0.69437820 Ry

     The total energy is F=E-TS. E is the sum of the following terms:
     one-electron contribution =       0.45087616 Ry
     hartree contribution      =       0.00124776 Ry
     xc contribution           =      -0.56329160 Ry
     ewald contribution        =      -0.58321052 Ry

     convergence has been achieved in   3 iterations

     Forces acting on atoms (cartesian axes, Ry/au):

     atom    1 type  1   force =     0.00000000    0.00000000    0.00000000

     Total force =     0.000000     Total SCF correction =     0.000000


     Computing stress (Cartesian axis) and pressure

          total   stress  (Ry/bohr**3)                   (kbar)     P=       13.87
   0.00009428  -0.00000000   0.00000000           13.87       -0.00        0.00
  -0.00000000   0.00009428  -0.00000000           -0.00       13.87       -0.00
   0.00000000  -0.00000000   0.00009428            0.00       -0.00       13.87


     Writing all to output data dir ./QE-outdir/li.save/ :
     XML data file, charge density, pseudopotentials, collected wavefunctions

     init_run     :      0.04s CPU      0.05s WALL (       1 calls)
     electrons    :      0.12s CPU      0.21s WALL (       1 calls)
     forces       :      0.00s CPU      0.00s WALL (       1 calls)
     stress       :      0.02s CPU      0.02s WALL (       1 calls)

     Called by init_run:
     wfcinit      :      0.03s CPU      0.04s WALL (       1 calls)
     potinit      :      0.00s CPU      0.00s WALL (       1 calls)
     hinit0       :      0.01s CPU      0.01s WALL (       1 calls)

     Called by electrons:
     c_bands      :      0.11s CPU      0.20s WALL (       4 calls)
     sum_band     :      0.01s CPU      0.01s WALL (       4 calls)
     v_of_rho     :      0.00s CPU      0.00s WALL (       4 calls)
     mix_rho      :      0.00s CPU      0.00s WALL (       4 calls)

     Called by c_bands:
     init_us_2    :      0.01s CPU      0.01s WALL (     484 calls)
     cegterg      :      0.10s CPU      0.19s WALL (     176 calls)

     Called by *egterg:
     cdiaghg      :      0.07s CPU      0.16s WALL (     589 calls)
     h_psi        :      0.05s CPU      0.05s WALL (     677 calls)
     g_psi        :      0.00s CPU      0.00s WALL (     457 calls)

     Called by h_psi:
     h_psi:calbec :      0.00s CPU      0.00s WALL (     677 calls)
     vloc_psi     :      0.05s CPU      0.05s WALL (     677 calls)
                                        0.00s GPU  (     677 calls)
     add_vuspsi   :      0.00s CPU      0.00s WALL (     677 calls)

     General routines
     calbec       :      0.01s CPU      0.01s WALL (    1425 calls)
     fft          :      0.00s CPU      0.00s WALL (      65 calls)
     ffts         :      0.00s CPU      0.00s WALL (       4 calls)
     fftw         :      0.04s CPU      0.04s WALL (    7190 calls)

     Parallel routines

     PWSCF        :      0.19s CPU      0.30s WALL


   This run was terminated on:  23:33:17  31Jan2026            

=------------------------------------------------------------------------------=
   JOB DONE.
=------------------------------------------------------------------------------=
