
     Program PWSCF v.7.5 starts on 26Jan2026 at 14: 5: 5 

     This program is part of the open-source Quantum ESPRESSO suite
     for quantum simulation of materials; please cite
         "P. Giannozzi et al., J. Phys.:Condens. Matter 21 395502 (2009);
         "P. Giannozzi et al., J. Phys.:Condens. Matter 29 465901 (2017);
         "P. Giannozzi et al., J. Chem. Phys. 152 154105 (2020);
          URL http://www.quantum-espresso.org", 
     in publications or presentations arising from this work. More details at
     http://www.quantum-espresso.org/quote

     Parallel version (MPI), running on     1 processors

     MPI processes distributed on     1 nodes
     0 MiB available memory on the printing compute node when the environment starts

     Waiting for input...
     Reading input from standard input
     Message from routine read_cards :
     DEPRECATED: no units specified in ATOMIC_POSITIONS card
     Message from routine read_cards :
     ATOMIC_POSITIONS: units set to alat

     Current dimensions of program PWSCF are:
     Max number of different atomic species (ntypx) = 10
     Max number of k-points (npk) =  40000
     Max angular momentum in pseudopotentials (lmaxx) =  4
     file Li.pbe-mt_fhi.UPF: wavefunction(s)  2p 4f renormalized

     Subspace diagonalization in iterative solution of the eigenvalue problem:
     a serial algorithm will be used


     G-vector sticks info
     --------------------
     sticks:   dense  smooth     PW     G-vecs:    dense   smooth      PW
     Sum         201     201     67                 1745     1745     369

     Using Slab Decomposition



     bravais-lattice index     =            3
     lattice parameter (alat)  =       6.6000  a.u.
     unit-cell volume          =     143.7480 (a.u.)^3
     number of atoms/cell      =            1
     number of atomic types    =            1
     number of electrons       =         1.00
     number of Kohn-Sham states=            5
     kinetic-energy cutoff     =      20.0000  Ry
     charge density cutoff     =      80.0000  Ry
     scf convergence threshold =      1.0E-08
     mixing beta               =       0.7000
     number of iterations used =            8  plain     mixing
     Exchange-correlation= PBE
                           (   1   4   3   4   0   0   0)

     celldm(1)=   6.600000  celldm(2)=   0.000000  celldm(3)=   0.000000
     celldm(4)=   0.000000  celldm(5)=   0.000000  celldm(6)=   0.000000

     crystal axes: (cart. coord. in units of alat)
               a(1) = (   0.500000   0.500000   0.500000 )  
               a(2) = (  -0.500000   0.500000   0.500000 )  
               a(3) = (  -0.500000  -0.500000   0.500000 )  

     reciprocal axes: (cart. coord. in units 2 pi/alat)
               b(1) = (  1.000000  0.000000  1.000000 )  
               b(2) = ( -1.000000  1.000000  0.000000 )  
               b(3) = (  0.000000 -1.000000  1.000000 )  


     PseudoPot. # 1 for Li read from file:
     ./pseudopot/Li.pbe-mt_fhi.UPF
     MD5 check sum: 3419f5616d131090147e867976aae79b
     Pseudo is Norm-conserving + core correction, Zval =  1.0
     Generated using FHI98PP, converted with fhi2upf.x v.5.0.2
     Using radial grid of  433 points,  3 beta functions with: 
                l(1) =   0
                l(2) =   1
                l(3) =   3

     atomic species   valence    mass     pseudopotential
     Li                1.00     6.94000     Li( 1.00)

     48 Sym. Ops., with inversion, found



   Cartesian axes

     site n.     atom                  positions (alat units)
         1        Li     tau(   1) = (   0.0000000   0.0000000   0.0000000  )

     number of k points=    44  Methfessel-Paxton smearing, width (Ry)=  0.0100
                       cart. coord. in units 2pi/alat
        k(    1) = (   0.0000000   0.0000000   0.1000000), wk =   0.0120000
        k(    2) = (   0.0000000  -0.1000000   0.2000000), wk =   0.0480000
        k(    3) = (   0.0000000  -0.2000000   0.3000000), wk =   0.0480000
        k(    4) = (   0.0000000  -0.3000000   0.4000000), wk =   0.0480000
        k(    5) = (   0.0000000  -0.4000000   0.5000000), wk =   0.0480000
        k(    6) = (  -0.1000000   0.1000000   0.1000000), wk =   0.0160000
        k(    7) = (  -0.1000000  -0.1000000   0.3000000), wk =   0.0480000
        k(    8) = (  -0.1000000  -0.2000000   0.4000000), wk =   0.0960000
        k(    9) = (  -0.1000000  -0.3000000   0.5000000), wk =   0.0960000
        k(   10) = (  -0.1000000   0.6000000  -0.4000000), wk =   0.0480000
        k(   11) = (  -0.2000000   0.2000000   0.1000000), wk =   0.0480000
        k(   12) = (  -0.2000000  -0.2000000   0.5000000), wk =   0.0480000
        k(   13) = (  -0.2000000   0.7000000  -0.4000000), wk =   0.0960000
        k(   14) = (  -0.3000000   0.3000000   0.1000000), wk =   0.0480000
        k(   15) = (  -0.3000000   0.2000000   0.2000000), wk =   0.0480000
        k(   16) = (  -0.3000000   0.7000000  -0.3000000), wk =   0.0160000
        k(   17) = (  -0.4000000   0.4000000   0.1000000), wk =   0.0480000
        k(   18) = (  -0.4000000   0.3000000   0.2000000), wk =   0.0960000
        k(   19) = (   0.5000000  -0.5000000   0.1000000), wk =   0.0240000
        k(   20) = (   0.5000000  -0.6000000   0.2000000), wk =   0.0960000
        k(   21) = (   0.5000000  -0.7000000   0.3000000), wk =   0.0480000
        k(   22) = (   0.4000000  -0.6000000   0.3000000), wk =   0.0480000
        k(   23) = (   0.0000000   0.0000000   0.3000000), wk =   0.0120000
        k(   24) = (   0.0000000  -0.1000000   0.4000000), wk =   0.0480000
        k(   25) = (   0.0000000  -0.2000000   0.5000000), wk =   0.0480000
        k(   26) = (   0.0000000  -0.3000000   0.6000000), wk =   0.0480000
        k(   27) = (  -0.1000000  -0.1000000   0.5000000), wk =   0.0480000
        k(   28) = (  -0.1000000  -0.2000000   0.6000000), wk =   0.0960000
        k(   29) = (  -0.1000000   0.7000000  -0.3000000), wk =   0.0480000
        k(   30) = (  -0.2000000   0.8000000  -0.3000000), wk =   0.0480000
        k(   31) = (  -0.3000000   0.3000000   0.3000000), wk =   0.0160000
        k(   32) = (   0.6000000  -0.6000000   0.3000000), wk =   0.0480000
        k(   33) = (   0.5000000  -0.5000000   0.3000000), wk =   0.0240000
        k(   34) = (   0.5000000  -0.6000000   0.4000000), wk =   0.0480000
        k(   35) = (   0.0000000   0.0000000   0.5000000), wk =   0.0120000
        k(   36) = (   0.0000000  -0.1000000   0.6000000), wk =   0.0480000
        k(   37) = (   0.0000000  -0.2000000   0.7000000), wk =   0.0480000
        k(   38) = (  -0.1000000  -0.1000000   0.7000000), wk =   0.0480000
        k(   39) = (  -0.1000000   0.8000000  -0.2000000), wk =   0.0480000
        k(   40) = (   0.5000000  -0.5000000   0.5000000), wk =   0.0040000
        k(   41) = (   0.0000000   0.0000000   0.7000000), wk =   0.0120000
        k(   42) = (   0.0000000  -0.1000000   0.8000000), wk =   0.0480000
        k(   43) = (  -0.1000000   0.9000000  -0.1000000), wk =   0.0160000
        k(   44) = (   0.0000000   0.0000000   0.9000000), wk =   0.0120000

     Dense  grid:     1745 G-vectors     FFT dimensions: (  18,  18,  18)

     Estimated max dynamical RAM per process >       2.27 MB

     Initial potential from superposition of free atoms

     starting charge       0.9960, renormalised to       1.0000
     Starting wfcs are   16 randomized atomic wfcs

     total cpu time spent up to now is        0.1 secs

     Self-consistent Calculation

     iteration #  1     ecut=    20.00 Ry     beta= 0.70
     Davidson diagonalization with overlap
     ethr =  1.00E-02,  avg # of iterations =  4.6

     Threshold (ethr) on eigenvalues was too large:
     Diagonalizing with lowered threshold

     Davidson diagonalization with overlap
     ethr =  1.86E-05,  avg # of iterations =  3.8

     total cpu time spent up to now is        0.3 secs

     total energy              =      -0.69462739 Ry
     estimated scf accuracy    <       0.00018603 Ry

     iteration #  2     ecut=    20.00 Ry     beta= 0.70
     Davidson diagonalization with overlap
     ethr =  1.86E-05,  avg # of iterations =  1.0

     total cpu time spent up to now is        0.3 secs

     total energy              =      -0.69462690 Ry
     estimated scf accuracy    <       0.00001675 Ry

     iteration #  3     ecut=    20.00 Ry     beta= 0.70
     Davidson diagonalization with overlap
     ethr =  1.68E-06,  avg # of iterations =  1.4

     total cpu time spent up to now is        0.4 secs

     End of self-consistent calculation

          k = 0.0000 0.0000 0.1000 (   213 PWs)   bands (ev):

    -3.0640  13.9030  13.9030  14.1638  17.9199

          k = 0.0000-0.1000 0.2000 (   215 PWs)   bands (ev):

    -2.6870  11.7845  12.6377  13.6559  16.2759

          k = 0.0000-0.2000 0.3000 (   211 PWs)   bands (ev):

    -1.9358   8.7606  11.3902  12.8802  15.5761

          k = 0.0000-0.3000 0.4000 (   216 PWs)   bands (ev):

    -0.8371   5.9717  10.5017  12.1958  14.6126

          k = 0.0000-0.4000 0.5000 (   217 PWs)   bands (ev):

     0.3984   3.8654  10.0478  11.8191  14.1282

          k =-0.1000 0.1000 0.1000 (   213 PWs)   bands (ev):

    -2.8758  12.9446  13.3079  13.3079  17.2245

          k =-0.1000-0.1000 0.3000 (   211 PWs)   bands (ev):

    -2.1206  10.1230  10.6431  13.0045  15.4317

          k =-0.1000-0.2000 0.4000 (   218 PWs)   bands (ev):

    -1.1839   7.3814   9.4691  12.2669  15.4273

          k =-0.1000-0.3000 0.5000 (   219 PWs)   bands (ev):

     0.0599   4.8877   8.8153  11.7113  15.4706

          k =-0.1000 0.6000-0.4000 (   217 PWs)   bands (ev):

     0.9892   3.5306   8.5968  11.5133  15.4106

          k =-0.2000 0.2000 0.1000 (   212 PWs)   bands (ev):

    -2.3116  10.3220  11.8214  12.1580  16.7274

          k =-0.2000-0.2000 0.5000 (   218 PWs)   bands (ev):

    -0.0683   5.7831   7.6488  11.8113  15.6734

          k =-0.2000 0.7000-0.4000 (   219 PWs)   bands (ev):

     1.2769   3.9110   6.9519  11.5289  16.1595

          k =-0.3000 0.3000 0.1000 (   210 PWs)   bands (ev):

    -1.3796   7.3282  10.8618  11.1458  16.0426

          k =-0.3000 0.2000 0.2000 (   212 PWs)   bands (ev):

    -1.5608   8.6247   9.5557  10.9710  17.5180

          k =-0.3000 0.7000-0.3000 (   219 PWs)   bands (ev):

     2.6780   2.6780   6.2055  11.4679  17.4151

          k =-0.4000 0.4000 0.1000 (   212 PWs)   bands (ev):

    -0.1494   4.7997  10.2591  10.4975  15.4881

          k =-0.4000 0.3000 0.2000 (   216 PWs)   bands (ev):

    -0.4515   6.0709   8.4776  10.2813  17.6158

          k = 0.5000-0.5000 0.1000 (   212 PWs)   bands (ev):

     0.7485   3.4627  10.0543  10.2769  15.2879

          k = 0.5000-0.6000 0.2000 (   216 PWs)   bands (ev):

     0.8444   3.9407   8.0148   9.9269  17.4772

          k = 0.5000-0.7000 0.3000 (   217 PWs)   bands (ev):

     0.8230   4.6099   6.7870   9.8597  18.8882

          k = 0.4000-0.6000 0.3000 (   216 PWs)   bands (ev):

     1.9602   3.2949   6.3274   9.7164  19.0343

          k = 0.0000 0.0000 0.3000 (   213 PWs)   bands (ev):

    -2.3065  11.2402  11.2402  13.1396  13.9820

          k = 0.0000-0.1000 0.4000 (   215 PWs)   bands (ev):

    -1.5477   8.8896   9.9350  12.5830  13.4956

          k = 0.0000-0.2000 0.5000 (   221 PWs)   bands (ev):

    -0.4323   6.2002   9.0216  11.9701  14.2720

          k = 0.0000-0.3000 0.6000 (   217 PWs)   bands (ev):

     0.8517   4.0764   8.5577  11.6421  15.2659

          k =-0.1000-0.1000 0.5000 (   220 PWs)   bands (ev):

    -0.5979   7.3501   8.2977  12.6207  12.7445

          k =-0.1000-0.2000 0.6000 (   221 PWs)   bands (ev):

     0.6816   5.1498   7.4740  12.1733  13.6744

          k =-0.1000 0.7000-0.3000 (   212 PWs)   bands (ev):

     1.7088   3.7490   7.2361  12.0023  14.5573

          k =-0.2000 0.8000-0.3000 (   219 PWs)   bands (ev):

     2.0853   3.8609   6.3390  12.7754  13.8641

          k =-0.3000 0.3000 0.3000 (   222 PWs)   bands (ev):

    -0.6261   7.4797   7.4797   9.5079  19.0801

          k = 0.6000-0.6000 0.3000 (   220 PWs)   bands (ev):

     0.6514   5.0553   6.7791   8.9894  19.8552

          k = 0.5000-0.5000 0.3000 (   214 PWs)   bands (ev):

     1.7202   3.5773   6.5442   8.8336  20.0423

          k = 0.5000-0.6000 0.4000 (   222 PWs)   bands (ev):

     2.0768   3.8966   5.3934   8.5957  21.1491

          k = 0.0000 0.0000 0.5000 (   209 PWs)   bands (ev):

    -0.7731   8.6071   8.6071  11.0259  12.4235

          k = 0.0000-0.1000 0.6000 (   221 PWs)   bands (ev):

     0.3720   6.6346   7.6831  10.7899  12.4749

          k = 0.0000-0.2000 0.7000 (   218 PWs)   bands (ev):

     1.7451   4.5403   7.2150  10.9361  13.4203

          k =-0.1000-0.1000 0.7000 (   220 PWs)   bands (ev):

     1.6939   5.4502   6.6043  10.8398  12.3932

          k =-0.1000 0.8000-0.2000 (   220 PWs)   bands (ev):

     2.8950   4.1193   6.2575  11.2689  12.9233

          k = 0.5000-0.5000 0.5000 (   216 PWs)   bands (ev):

     3.6580   3.6580   3.6580   8.2626  23.1241

          k = 0.0000 0.0000 0.7000 (   220 PWs)   bands (ev):

     1.5595   6.7552   6.7552   9.0546  11.9498

          k = 0.0000-0.1000 0.8000 (   224 PWs)   bands (ev):

     3.0384   5.2761   6.2850   9.3560  11.3967

          k =-0.1000 0.9000-0.1000 (   230 PWs)   bands (ev):

     4.4917   4.4917   5.8100   9.8757   9.8757

          k = 0.0000 0.0000 0.9000 (   236 PWs)   bands (ev):

     4.6011   5.8142   5.8142   8.0689   9.1941

     the Fermi energy is     0.4244 ev

!    total energy              =      -0.69462699 Ry
     estimated scf accuracy    <          1.2E-09 Ry
     smearing contrib. (-TS)   =      -0.00005604 Ry
     internal energy E=F+TS    =      -0.69457095 Ry

     The total energy is F=E-TS. E is the sum of the following terms:
     one-electron contribution =       0.39808109 Ry
     hartree contribution      =       0.00096288 Ry
     xc contribution           =      -0.54221587 Ry
     ewald contribution        =      -0.55139904 Ry

     convergence has been achieved in   3 iterations

     Forces acting on atoms (cartesian axes, Ry/au):

     atom    1 type  1   force =     0.00000000    0.00000000    0.00000000

     Total force =     0.000000     Total SCF correction =     0.000000


     Computing stress (Cartesian axis) and pressure

          total   stress  (Ry/bohr**3)                   (kbar)     P=       -9.43
  -0.00006412  -0.00000000  -0.00000000           -9.43       -0.00       -0.00
  -0.00000000  -0.00006412   0.00000000           -0.00       -9.43        0.00
  -0.00000000  -0.00000000  -0.00006412           -0.00       -0.00       -9.43


     Writing all to output data dir ./QE-outdir/li.save/ :
     XML data file, charge density, pseudopotentials, collected wavefunctions

     init_run     :      0.06s CPU      0.08s WALL (       1 calls)
     electrons    :      0.22s CPU      0.31s WALL (       1 calls)
     forces       :      0.00s CPU      0.00s WALL (       1 calls)
     stress       :      0.03s CPU      0.03s WALL (       1 calls)

     Called by init_run:
     wfcinit      :      0.05s CPU      0.06s WALL (       1 calls)
     potinit      :      0.00s CPU      0.00s WALL (       1 calls)
     hinit0       :      0.01s CPU      0.01s WALL (       1 calls)

     Called by electrons:
     c_bands      :      0.19s CPU      0.28s WALL (       4 calls)
     sum_band     :      0.03s CPU      0.03s WALL (       4 calls)
     v_of_rho     :      0.00s CPU      0.00s WALL (       4 calls)
     mix_rho      :      0.00s CPU      0.00s WALL (       4 calls)

     Called by c_bands:
     init_us_2    :      0.01s CPU      0.01s WALL (     484 calls)
     cegterg      :      0.18s CPU      0.28s WALL (     176 calls)

     Called by *egterg:
     cdiaghg      :      0.07s CPU      0.17s WALL (     608 calls)
     h_psi        :      0.14s CPU      0.15s WALL (     696 calls)
     g_psi        :      0.00s CPU      0.00s WALL (     476 calls)

     Called by h_psi:
     h_psi:calbec :      0.00s CPU      0.00s WALL (     696 calls)
     vloc_psi     :      0.14s CPU      0.14s WALL (     696 calls)
                                        0.00s GPU  (     696 calls)
     add_vuspsi   :      0.00s CPU      0.00s WALL (     696 calls)

     General routines
     calbec       :      0.01s CPU      0.01s WALL (    1444 calls)
     fft          :      0.00s CPU      0.00s WALL (      65 calls)
     ffts         :      0.00s CPU      0.00s WALL (       4 calls)
     fftw         :      0.14s CPU      0.14s WALL (    7338 calls)

     Parallel routines

     PWSCF        :      0.32s CPU      0.44s WALL


   This run was terminated on:  14: 5: 5  26Jan2026            

=------------------------------------------------------------------------------=
   JOB DONE.
=------------------------------------------------------------------------------=
