
     Program PWSCF v.7.5 starts on 26Jan2026 at 14: 5: 2 

     This program is part of the open-source Quantum ESPRESSO suite
     for quantum simulation of materials; please cite
         "P. Giannozzi et al., J. Phys.:Condens. Matter 21 395502 (2009);
         "P. Giannozzi et al., J. Phys.:Condens. Matter 29 465901 (2017);
         "P. Giannozzi et al., J. Chem. Phys. 152 154105 (2020);
          URL http://www.quantum-espresso.org", 
     in publications or presentations arising from this work. More details at
     http://www.quantum-espresso.org/quote

     Parallel version (MPI), running on     1 processors

     MPI processes distributed on     1 nodes
     0 MiB available memory on the printing compute node when the environment starts

     Waiting for input...
     Reading input from standard input
     Message from routine read_cards :
     DEPRECATED: no units specified in ATOMIC_POSITIONS card
     Message from routine read_cards :
     ATOMIC_POSITIONS: units set to alat

     Current dimensions of program PWSCF are:
     Max number of different atomic species (ntypx) = 10
     Max number of k-points (npk) =  40000
     Max angular momentum in pseudopotentials (lmaxx) =  4
     file Li.pbe-mt_fhi.UPF: wavefunction(s)  2p 4f renormalized

     Subspace diagonalization in iterative solution of the eigenvalue problem:
     a serial algorithm will be used


     G-vector sticks info
     --------------------
     sticks:   dense  smooth     PW     G-vecs:    dense   smooth      PW
     Sum         173     173     63                 1505     1505     321

     Using Slab Decomposition



     bravais-lattice index     =            3
     lattice parameter (alat)  =       6.3000  a.u.
     unit-cell volume          =     125.0235 (a.u.)^3
     number of atoms/cell      =            1
     number of atomic types    =            1
     number of electrons       =         1.00
     number of Kohn-Sham states=            5
     kinetic-energy cutoff     =      20.0000  Ry
     charge density cutoff     =      80.0000  Ry
     scf convergence threshold =      1.0E-08
     mixing beta               =       0.7000
     number of iterations used =            8  plain     mixing
     Exchange-correlation= PBE
                           (   1   4   3   4   0   0   0)

     celldm(1)=   6.300000  celldm(2)=   0.000000  celldm(3)=   0.000000
     celldm(4)=   0.000000  celldm(5)=   0.000000  celldm(6)=   0.000000

     crystal axes: (cart. coord. in units of alat)
               a(1) = (   0.500000   0.500000   0.500000 )  
               a(2) = (  -0.500000   0.500000   0.500000 )  
               a(3) = (  -0.500000  -0.500000   0.500000 )  

     reciprocal axes: (cart. coord. in units 2 pi/alat)
               b(1) = (  1.000000  0.000000  1.000000 )  
               b(2) = ( -1.000000  1.000000  0.000000 )  
               b(3) = (  0.000000 -1.000000  1.000000 )  


     PseudoPot. # 1 for Li read from file:
     ./pseudopot/Li.pbe-mt_fhi.UPF
     MD5 check sum: 3419f5616d131090147e867976aae79b
     Pseudo is Norm-conserving + core correction, Zval =  1.0
     Generated using FHI98PP, converted with fhi2upf.x v.5.0.2
     Using radial grid of  433 points,  3 beta functions with: 
                l(1) =   0
                l(2) =   1
                l(3) =   3

     atomic species   valence    mass     pseudopotential
     Li                1.00     6.94000     Li( 1.00)

     48 Sym. Ops., with inversion, found



   Cartesian axes

     site n.     atom                  positions (alat units)
         1        Li     tau(   1) = (   0.0000000   0.0000000   0.0000000  )

     number of k points=    44  Methfessel-Paxton smearing, width (Ry)=  0.0100
                       cart. coord. in units 2pi/alat
        k(    1) = (   0.0000000   0.0000000   0.1000000), wk =   0.0120000
        k(    2) = (   0.0000000  -0.1000000   0.2000000), wk =   0.0480000
        k(    3) = (   0.0000000  -0.2000000   0.3000000), wk =   0.0480000
        k(    4) = (   0.0000000  -0.3000000   0.4000000), wk =   0.0480000
        k(    5) = (   0.0000000  -0.4000000   0.5000000), wk =   0.0480000
        k(    6) = (  -0.1000000   0.1000000   0.1000000), wk =   0.0160000
        k(    7) = (  -0.1000000  -0.1000000   0.3000000), wk =   0.0480000
        k(    8) = (  -0.1000000  -0.2000000   0.4000000), wk =   0.0960000
        k(    9) = (  -0.1000000  -0.3000000   0.5000000), wk =   0.0960000
        k(   10) = (  -0.1000000   0.6000000  -0.4000000), wk =   0.0480000
        k(   11) = (  -0.2000000   0.2000000   0.1000000), wk =   0.0480000
        k(   12) = (  -0.2000000  -0.2000000   0.5000000), wk =   0.0480000
        k(   13) = (  -0.2000000   0.7000000  -0.4000000), wk =   0.0960000
        k(   14) = (  -0.3000000   0.3000000   0.1000000), wk =   0.0480000
        k(   15) = (  -0.3000000   0.2000000   0.2000000), wk =   0.0480000
        k(   16) = (  -0.3000000   0.7000000  -0.3000000), wk =   0.0160000
        k(   17) = (  -0.4000000   0.4000000   0.1000000), wk =   0.0480000
        k(   18) = (  -0.4000000   0.3000000   0.2000000), wk =   0.0960000
        k(   19) = (   0.5000000  -0.5000000   0.1000000), wk =   0.0240000
        k(   20) = (   0.5000000  -0.6000000   0.2000000), wk =   0.0960000
        k(   21) = (   0.5000000  -0.7000000   0.3000000), wk =   0.0480000
        k(   22) = (   0.4000000  -0.6000000   0.3000000), wk =   0.0480000
        k(   23) = (   0.0000000   0.0000000   0.3000000), wk =   0.0120000
        k(   24) = (   0.0000000  -0.1000000   0.4000000), wk =   0.0480000
        k(   25) = (   0.0000000  -0.2000000   0.5000000), wk =   0.0480000
        k(   26) = (   0.0000000  -0.3000000   0.6000000), wk =   0.0480000
        k(   27) = (  -0.1000000  -0.1000000   0.5000000), wk =   0.0480000
        k(   28) = (  -0.1000000  -0.2000000   0.6000000), wk =   0.0960000
        k(   29) = (  -0.1000000   0.7000000  -0.3000000), wk =   0.0480000
        k(   30) = (  -0.2000000   0.8000000  -0.3000000), wk =   0.0480000
        k(   31) = (  -0.3000000   0.3000000   0.3000000), wk =   0.0160000
        k(   32) = (   0.6000000  -0.6000000   0.3000000), wk =   0.0480000
        k(   33) = (   0.5000000  -0.5000000   0.3000000), wk =   0.0240000
        k(   34) = (   0.5000000  -0.6000000   0.4000000), wk =   0.0480000
        k(   35) = (   0.0000000   0.0000000   0.5000000), wk =   0.0120000
        k(   36) = (   0.0000000  -0.1000000   0.6000000), wk =   0.0480000
        k(   37) = (   0.0000000  -0.2000000   0.7000000), wk =   0.0480000
        k(   38) = (  -0.1000000  -0.1000000   0.7000000), wk =   0.0480000
        k(   39) = (  -0.1000000   0.8000000  -0.2000000), wk =   0.0480000
        k(   40) = (   0.5000000  -0.5000000   0.5000000), wk =   0.0040000
        k(   41) = (   0.0000000   0.0000000   0.7000000), wk =   0.0120000
        k(   42) = (   0.0000000  -0.1000000   0.8000000), wk =   0.0480000
        k(   43) = (  -0.1000000   0.9000000  -0.1000000), wk =   0.0160000
        k(   44) = (   0.0000000   0.0000000   0.9000000), wk =   0.0120000

     Dense  grid:     1505 G-vectors     FFT dimensions: (  15,  15,  15)

     Estimated max dynamical RAM per process >       1.89 MB

     Initial potential from superposition of free atoms

     starting charge       0.9960, renormalised to       1.0000
     Starting wfcs are   16 randomized atomic wfcs

     total cpu time spent up to now is        0.1 secs

     Self-consistent Calculation

     iteration #  1     ecut=    20.00 Ry     beta= 0.70
     Davidson diagonalization with overlap
     ethr =  1.00E-02,  avg # of iterations =  4.4

     Threshold (ethr) on eigenvalues was too large:
     Diagonalizing with lowered threshold

     Davidson diagonalization with overlap
     ethr =  2.35E-05,  avg # of iterations =  3.5

     total cpu time spent up to now is        0.2 secs

     total energy              =      -0.69473493 Ry
     estimated scf accuracy    <       0.00023498 Ry

     iteration #  2     ecut=    20.00 Ry     beta= 0.70
     Davidson diagonalization with overlap
     ethr =  2.35E-05,  avg # of iterations =  1.0

     total cpu time spent up to now is        0.2 secs

     total energy              =      -0.69473314 Ry
     estimated scf accuracy    <       0.00002083 Ry

     iteration #  3     ecut=    20.00 Ry     beta= 0.70
     Davidson diagonalization with overlap
     ethr =  2.08E-06,  avg # of iterations =  1.4

     total cpu time spent up to now is        0.3 secs

     End of self-consistent calculation

          k = 0.0000 0.0000 0.1000 (   193 PWs)   bands (ev):

    -2.8784  15.6548  15.6548  15.9625  19.8972

          k = 0.0000-0.1000 0.2000 (   190 PWs)   bands (ev):

    -2.4814  13.2988  14.2397  15.3849  18.1406

          k = 0.0000-0.2000 0.3000 (   188 PWs)   bands (ev):

    -1.6894   9.9763  12.8562  14.5057  17.3591

          k = 0.0000-0.3000 0.4000 (   188 PWs)   bands (ev):

    -0.5338   6.9481  11.8756  13.7385  16.3010

          k = 0.0000-0.4000 0.5000 (   185 PWs)   bands (ev):

     0.7420   4.7080  11.3756  13.3196  15.7691

          k =-0.1000 0.1000 0.1000 (   189 PWs)   bands (ev):

    -2.6804  14.6203  14.9674  14.9675  19.1963

          k =-0.1000-0.1000 0.3000 (   186 PWs)   bands (ev):

    -1.8836  11.4197  12.0830  14.6535  17.2124

          k =-0.1000-0.2000 0.4000 (   186 PWs)   bands (ev):

    -0.8945   8.4388  10.7853  13.8200  17.2334

          k =-0.1000-0.3000 0.5000 (   187 PWs)   bands (ev):

     0.4123   5.7522  10.0649  13.1987  17.3248

          k =-0.1000 0.6000-0.4000 (   191 PWs)   bands (ev):

     1.3600   4.3314   9.8245  12.9780  17.2682

          k =-0.2000 0.2000 0.1000 (   192 PWs)   bands (ev):

    -2.0860  11.6762  13.3752  13.6682  18.6721

          k =-0.2000-0.2000 0.5000 (   185 PWs)   bands (ev):

     0.2874   6.6313   8.8821  13.3130  17.4829

          k =-0.2000 0.7000-0.4000 (   192 PWs)   bands (ev):

     1.7041   4.6175   8.1347  13.0021  18.0493

          k =-0.3000 0.3000 0.1000 (   185 PWs)   bands (ev):

    -1.1037   8.4057  12.3277  12.5402  17.9067

          k =-0.3000 0.2000 0.2000 (   186 PWs)   bands (ev):

    -1.2936   9.7584  10.8832  12.4405  19.5897

          k =-0.3000 0.7000-0.3000 (   191 PWs)   bands (ev):

     3.2162   3.2162   7.3919  12.9410  19.3948

          k =-0.4000 0.4000 0.1000 (   185 PWs)   bands (ev):

     0.1846   5.6799  11.6682  11.8216  17.2892

          k =-0.4000 0.3000 0.2000 (   187 PWs)   bands (ev):

    -0.1221   6.9905   9.6847  11.7090  19.6935

          k = 0.5000-0.5000 0.1000 (   188 PWs)   bands (ev):

     1.0956   4.2825  11.4437  11.5773  17.0667

          k = 0.5000-0.6000 0.2000 (   187 PWs)   bands (ev):

     1.2307   4.7172   9.1691  11.3331  19.5355

          k = 0.5000-0.7000 0.3000 (   187 PWs)   bands (ev):

     1.2304   5.3395   7.9078  11.2815  21.1311

          k = 0.4000-0.6000 0.3000 (   189 PWs)   bands (ev):

     2.4269   3.9276   7.4182  11.1367  21.2694

          k = 0.0000 0.0000 0.3000 (   189 PWs)   bands (ev):

    -2.0792  12.6794  12.6794  14.8900  15.5756

          k = 0.0000-0.1000 0.4000 (   188 PWs)   bands (ev):

    -1.2761  10.0935  11.2362  14.2320  15.1213

          k = 0.0000-0.2000 0.5000 (   189 PWs)   bands (ev):

    -0.0971   7.1686  10.2287  13.5684  15.9797

          k = 0.0000-0.3000 0.6000 (   188 PWs)   bands (ev):

     1.2400   4.9012   9.7181  13.2152  17.0880

          k =-0.1000-0.1000 0.5000 (   186 PWs)   bands (ev):

    -0.2676   8.3620   9.5003  14.2481  14.3304

          k =-0.1000-0.2000 0.6000 (   188 PWs)   bands (ev):

     1.0878   5.9824   8.6075  13.7739  15.3245

          k =-0.1000 0.7000-0.3000 (   193 PWs)   bands (ev):

     2.1510   4.5075   8.3454  13.5902  16.2963

          k =-0.2000 0.8000-0.3000 (   195 PWs)   bands (ev):

     2.5849   4.5179   7.4701  14.4511  15.4858

          k =-0.3000 0.3000 0.3000 (   186 PWs)   bands (ev):

    -0.3045   8.4955   8.4955  11.0114  21.3144

          k = 0.6000-0.6000 0.3000 (   184 PWs)   bands (ev):

     1.0490   5.8587   7.7238  10.4886  22.4551

          k = 0.5000-0.5000 0.3000 (   186 PWs)   bands (ev):

     2.1631   4.2894   7.4649  10.3305  22.3625

          k = 0.5000-0.6000 0.4000 (   190 PWs)   bands (ev):

     2.5727   4.5549   6.2398  10.1170  23.6222

          k = 0.0000 0.0000 0.5000 (   184 PWs)   bands (ev):

    -0.4504   9.7695   9.7695  12.3312  14.2077

          k = 0.0000-0.1000 0.6000 (   192 PWs)   bands (ev):

     0.7704   7.6080   8.7514  12.1237  14.2504

          k = 0.0000-0.2000 0.7000 (   196 PWs)   bands (ev):

     2.2208   5.3540   8.2364  12.4035  15.1646

          k =-0.1000-0.1000 0.7000 (   193 PWs)   bands (ev):

     2.1853   6.2716   7.6335  12.1540  14.1563

          k =-0.1000 0.8000-0.2000 (   198 PWs)   bands (ev):

     3.4564   4.8425   7.2705  12.6842  14.4505

          k = 0.5000-0.5000 0.5000 (   180 PWs)   bands (ev):

     4.2925   4.2925   4.2925   9.8286  25.8085

          k = 0.0000 0.0000 0.7000 (   196 PWs)   bands (ev):

     2.0506   7.7298   7.7298  10.1677  13.7129

          k = 0.0000-0.1000 0.8000 (   198 PWs)   bands (ev):

     3.6396   6.1141   7.2129  10.5352  12.8521

          k =-0.1000 0.9000-0.1000 (   197 PWs)   bands (ev):

     5.2179   5.2179   6.7420  11.0950  11.0951

          k = 0.0000 0.0000 0.9000 (   188 PWs)   bands (ev):

     5.3534   6.6954   6.6954   9.0858  10.3524

     the Fermi energy is     0.7937 ev

!    total energy              =      -0.69473321 Ry
     estimated scf accuracy    <          6.4E-10 Ry
     smearing contrib. (-TS)   =      -0.00007794 Ry
     internal energy E=F+TS    =      -0.69465527 Ry

     The total energy is F=E-TS. E is the sum of the following terms:
     one-electron contribution =       0.44139195 Ry
     hartree contribution      =       0.00119797 Ry
     xc contribution           =      -0.55958905 Ry
     ewald contribution        =      -0.57765614 Ry

     convergence has been achieved in   3 iterations

     Forces acting on atoms (cartesian axes, Ry/au):

     atom    1 type  1   force =     0.00000000    0.00000000    0.00000000

     Total force =     0.000000     Total SCF correction =     0.000000


     Computing stress (Cartesian axis) and pressure

          total   stress  (Ry/bohr**3)                   (kbar)     P=        8.94
   0.00006078   0.00000000  -0.00000000            8.94        0.00       -0.00
   0.00000000   0.00006078   0.00000000            0.00        8.94        0.00
  -0.00000000   0.00000000   0.00006078           -0.00        0.00        8.94


     Writing all to output data dir ./QE-outdir/li.save/ :
     XML data file, charge density, pseudopotentials, collected wavefunctions

     init_run     :      0.04s CPU      0.06s WALL (       1 calls)
     electrons    :      0.12s CPU      0.21s WALL (       1 calls)
     forces       :      0.00s CPU      0.00s WALL (       1 calls)
     stress       :      0.02s CPU      0.02s WALL (       1 calls)

     Called by init_run:
     wfcinit      :      0.03s CPU      0.04s WALL (       1 calls)
     potinit      :      0.00s CPU      0.00s WALL (       1 calls)
     hinit0       :      0.01s CPU      0.01s WALL (       1 calls)

     Called by electrons:
     c_bands      :      0.11s CPU      0.20s WALL (       4 calls)
     sum_band     :      0.01s CPU      0.01s WALL (       4 calls)
     v_of_rho     :      0.00s CPU      0.00s WALL (       4 calls)
     mix_rho      :      0.00s CPU      0.00s WALL (       4 calls)

     Called by c_bands:
     init_us_2    :      0.01s CPU      0.01s WALL (     484 calls)
     cegterg      :      0.11s CPU      0.19s WALL (     176 calls)

     Called by *egterg:
     cdiaghg      :      0.07s CPU      0.16s WALL (     587 calls)
     h_psi        :      0.05s CPU      0.06s WALL (     675 calls)
     g_psi        :      0.00s CPU      0.00s WALL (     455 calls)

     Called by h_psi:
     h_psi:calbec :      0.00s CPU      0.00s WALL (     675 calls)
     vloc_psi     :      0.05s CPU      0.05s WALL (     675 calls)
                                        0.00s GPU  (     675 calls)
     add_vuspsi   :      0.00s CPU      0.00s WALL (     675 calls)

     General routines
     calbec       :      0.01s CPU      0.01s WALL (    1423 calls)
     fft          :      0.00s CPU      0.00s WALL (      65 calls)
     ffts         :      0.00s CPU      0.00s WALL (       4 calls)
     fftw         :      0.04s CPU      0.04s WALL (    7204 calls)

     Parallel routines

     PWSCF        :      0.20s CPU      0.30s WALL


   This run was terminated on:  14: 5: 2  26Jan2026            

=------------------------------------------------------------------------------=
   JOB DONE.
=------------------------------------------------------------------------------=
