
     Program PWSCF v.7.5 starts on 26Jan2026 at 14: 5: 3 

     This program is part of the open-source Quantum ESPRESSO suite
     for quantum simulation of materials; please cite
         "P. Giannozzi et al., J. Phys.:Condens. Matter 21 395502 (2009);
         "P. Giannozzi et al., J. Phys.:Condens. Matter 29 465901 (2017);
         "P. Giannozzi et al., J. Chem. Phys. 152 154105 (2020);
          URL http://www.quantum-espresso.org", 
     in publications or presentations arising from this work. More details at
     http://www.quantum-espresso.org/quote

     Parallel version (MPI), running on     1 processors

     MPI processes distributed on     1 nodes
     0 MiB available memory on the printing compute node when the environment starts

     Waiting for input...
     Reading input from standard input
     Message from routine read_cards :
     DEPRECATED: no units specified in ATOMIC_POSITIONS card
     Message from routine read_cards :
     ATOMIC_POSITIONS: units set to alat

     Current dimensions of program PWSCF are:
     Max number of different atomic species (ntypx) = 10
     Max number of k-points (npk) =  40000
     Max angular momentum in pseudopotentials (lmaxx) =  4
     file Li.pbe-mt_fhi.UPF: wavefunction(s)  2p 4f renormalized

     Subspace diagonalization in iterative solution of the eigenvalue problem:
     a serial algorithm will be used


     G-vector sticks info
     --------------------
     sticks:   dense  smooth     PW     G-vecs:    dense   smooth      PW
     Sum         181     181     63                 1553     1553     321

     Using Slab Decomposition



     bravais-lattice index     =            3
     lattice parameter (alat)  =       6.4000  a.u.
     unit-cell volume          =     131.0720 (a.u.)^3
     number of atoms/cell      =            1
     number of atomic types    =            1
     number of electrons       =         1.00
     number of Kohn-Sham states=            5
     kinetic-energy cutoff     =      20.0000  Ry
     charge density cutoff     =      80.0000  Ry
     scf convergence threshold =      1.0E-08
     mixing beta               =       0.7000
     number of iterations used =            8  plain     mixing
     Exchange-correlation= PBE
                           (   1   4   3   4   0   0   0)

     celldm(1)=   6.400000  celldm(2)=   0.000000  celldm(3)=   0.000000
     celldm(4)=   0.000000  celldm(5)=   0.000000  celldm(6)=   0.000000

     crystal axes: (cart. coord. in units of alat)
               a(1) = (   0.500000   0.500000   0.500000 )  
               a(2) = (  -0.500000   0.500000   0.500000 )  
               a(3) = (  -0.500000  -0.500000   0.500000 )  

     reciprocal axes: (cart. coord. in units 2 pi/alat)
               b(1) = (  1.000000  0.000000  1.000000 )  
               b(2) = ( -1.000000  1.000000  0.000000 )  
               b(3) = (  0.000000 -1.000000  1.000000 )  


     PseudoPot. # 1 for Li read from file:
     ./pseudopot/Li.pbe-mt_fhi.UPF
     MD5 check sum: 3419f5616d131090147e867976aae79b
     Pseudo is Norm-conserving + core correction, Zval =  1.0
     Generated using FHI98PP, converted with fhi2upf.x v.5.0.2
     Using radial grid of  433 points,  3 beta functions with: 
                l(1) =   0
                l(2) =   1
                l(3) =   3

     atomic species   valence    mass     pseudopotential
     Li                1.00     6.94000     Li( 1.00)

     48 Sym. Ops., with inversion, found



   Cartesian axes

     site n.     atom                  positions (alat units)
         1        Li     tau(   1) = (   0.0000000   0.0000000   0.0000000  )

     number of k points=    44  Methfessel-Paxton smearing, width (Ry)=  0.0100
                       cart. coord. in units 2pi/alat
        k(    1) = (   0.0000000   0.0000000   0.1000000), wk =   0.0120000
        k(    2) = (   0.0000000  -0.1000000   0.2000000), wk =   0.0480000
        k(    3) = (   0.0000000  -0.2000000   0.3000000), wk =   0.0480000
        k(    4) = (   0.0000000  -0.3000000   0.4000000), wk =   0.0480000
        k(    5) = (   0.0000000  -0.4000000   0.5000000), wk =   0.0480000
        k(    6) = (  -0.1000000   0.1000000   0.1000000), wk =   0.0160000
        k(    7) = (  -0.1000000  -0.1000000   0.3000000), wk =   0.0480000
        k(    8) = (  -0.1000000  -0.2000000   0.4000000), wk =   0.0960000
        k(    9) = (  -0.1000000  -0.3000000   0.5000000), wk =   0.0960000
        k(   10) = (  -0.1000000   0.6000000  -0.4000000), wk =   0.0480000
        k(   11) = (  -0.2000000   0.2000000   0.1000000), wk =   0.0480000
        k(   12) = (  -0.2000000  -0.2000000   0.5000000), wk =   0.0480000
        k(   13) = (  -0.2000000   0.7000000  -0.4000000), wk =   0.0960000
        k(   14) = (  -0.3000000   0.3000000   0.1000000), wk =   0.0480000
        k(   15) = (  -0.3000000   0.2000000   0.2000000), wk =   0.0480000
        k(   16) = (  -0.3000000   0.7000000  -0.3000000), wk =   0.0160000
        k(   17) = (  -0.4000000   0.4000000   0.1000000), wk =   0.0480000
        k(   18) = (  -0.4000000   0.3000000   0.2000000), wk =   0.0960000
        k(   19) = (   0.5000000  -0.5000000   0.1000000), wk =   0.0240000
        k(   20) = (   0.5000000  -0.6000000   0.2000000), wk =   0.0960000
        k(   21) = (   0.5000000  -0.7000000   0.3000000), wk =   0.0480000
        k(   22) = (   0.4000000  -0.6000000   0.3000000), wk =   0.0480000
        k(   23) = (   0.0000000   0.0000000   0.3000000), wk =   0.0120000
        k(   24) = (   0.0000000  -0.1000000   0.4000000), wk =   0.0480000
        k(   25) = (   0.0000000  -0.2000000   0.5000000), wk =   0.0480000
        k(   26) = (   0.0000000  -0.3000000   0.6000000), wk =   0.0480000
        k(   27) = (  -0.1000000  -0.1000000   0.5000000), wk =   0.0480000
        k(   28) = (  -0.1000000  -0.2000000   0.6000000), wk =   0.0960000
        k(   29) = (  -0.1000000   0.7000000  -0.3000000), wk =   0.0480000
        k(   30) = (  -0.2000000   0.8000000  -0.3000000), wk =   0.0480000
        k(   31) = (  -0.3000000   0.3000000   0.3000000), wk =   0.0160000
        k(   32) = (   0.6000000  -0.6000000   0.3000000), wk =   0.0480000
        k(   33) = (   0.5000000  -0.5000000   0.3000000), wk =   0.0240000
        k(   34) = (   0.5000000  -0.6000000   0.4000000), wk =   0.0480000
        k(   35) = (   0.0000000   0.0000000   0.5000000), wk =   0.0120000
        k(   36) = (   0.0000000  -0.1000000   0.6000000), wk =   0.0480000
        k(   37) = (   0.0000000  -0.2000000   0.7000000), wk =   0.0480000
        k(   38) = (  -0.1000000  -0.1000000   0.7000000), wk =   0.0480000
        k(   39) = (  -0.1000000   0.8000000  -0.2000000), wk =   0.0480000
        k(   40) = (   0.5000000  -0.5000000   0.5000000), wk =   0.0040000
        k(   41) = (   0.0000000   0.0000000   0.7000000), wk =   0.0120000
        k(   42) = (   0.0000000  -0.1000000   0.8000000), wk =   0.0480000
        k(   43) = (  -0.1000000   0.9000000  -0.1000000), wk =   0.0160000
        k(   44) = (   0.0000000   0.0000000   0.9000000), wk =   0.0120000

     Dense  grid:     1553 G-vectors     FFT dimensions: (  15,  15,  15)

     Estimated max dynamical RAM per process >       1.94 MB

     Initial potential from superposition of free atoms

     starting charge       0.9960, renormalised to       1.0000
     Starting wfcs are   16 randomized atomic wfcs

     total cpu time spent up to now is        0.1 secs

     Self-consistent Calculation

     iteration #  1     ecut=    20.00 Ry     beta= 0.70
     Davidson diagonalization with overlap
     ethr =  1.00E-02,  avg # of iterations =  4.6

     Threshold (ethr) on eigenvalues was too large:
     Diagonalizing with lowered threshold

     Davidson diagonalization with overlap
     ethr =  2.16E-05,  avg # of iterations =  3.4

     total cpu time spent up to now is        0.2 secs

     total energy              =      -0.69496195 Ry
     estimated scf accuracy    <       0.00021483 Ry

     iteration #  2     ecut=    20.00 Ry     beta= 0.70
     Davidson diagonalization with overlap
     ethr =  2.15E-05,  avg # of iterations =  1.1

     total cpu time spent up to now is        0.2 secs

     total energy              =      -0.69496058 Ry
     estimated scf accuracy    <       0.00001912 Ry

     iteration #  3     ecut=    20.00 Ry     beta= 0.70
     Davidson diagonalization with overlap
     ethr =  1.91E-06,  avg # of iterations =  1.7

     total cpu time spent up to now is        0.3 secs

     End of self-consistent calculation

          k = 0.0000 0.0000 0.1000 (   197 PWs)   bands (ev):

    -2.9470  15.0428  15.0429  15.3350  19.2066

          k = 0.0000-0.1000 0.2000 (   198 PWs)   bands (ev):

    -2.5565  12.7694  13.6797  14.7815  17.4894

          k = 0.0000-0.2000 0.3000 (   193 PWs)   bands (ev):

    -1.7781   9.5516  12.3447  13.9379  16.7366

          k = 0.0000-0.3000 0.4000 (   192 PWs)   bands (ev):

    -0.6412   6.6062  11.3961  13.2001  15.7115

          k = 0.0000-0.4000 0.5000 (   193 PWs)   bands (ev):

     0.6216   4.4117  10.9122  12.7959  15.1962

          k =-0.1000 0.1000 0.1000 (   198 PWs)   bands (ev):

    -2.7522  14.0342  14.3877  14.3878  18.5071

          k =-0.1000-0.1000 0.3000 (   199 PWs)   bands (ev):

    -1.9692  10.9663  11.5799  14.0770  16.5900

          k =-0.1000-0.2000 0.4000 (   195 PWs)   bands (ev):

    -0.9974   8.0694  10.3250  13.2776  16.6023

          k =-0.1000-0.3000 0.5000 (   200 PWs)   bands (ev):

     0.2883   5.4493   9.6276  12.6792  16.6773

          k =-0.1000 0.6000-0.4000 (   197 PWs)   bands (ev):

     1.2302   4.0505   9.3951  12.4669  16.6197

          k =-0.2000 0.2000 0.1000 (   197 PWs)   bands (ev):

    -2.1678  11.2032  12.8323  13.1414  17.9929

          k =-0.2000-0.2000 0.5000 (   199 PWs)   bands (ev):

     0.1620   6.3348   8.4501  12.7882  16.8506

          k =-0.2000 0.7000-0.4000 (   200 PWs)   bands (ev):

     1.5546   4.3706   7.7197  12.4878  17.3895

          k =-0.3000 0.3000 0.1000 (   194 PWs)   bands (ev):

    -1.2021   8.0291  11.8146  12.0533  17.2556

          k =-0.3000 0.2000 0.2000 (   194 PWs)   bands (ev):

    -1.3891   9.3627  10.4201  11.9254  18.8659

          k =-0.3000 0.7000-0.3000 (   203 PWs)   bands (ev):

     3.0278   3.0278   6.9756  12.4263  18.7030

          k =-0.4000 0.4000 0.1000 (   193 PWs)   bands (ev):

     0.0671   5.3712  11.1754  11.3594  16.6603

          k =-0.4000 0.3000 0.2000 (   193 PWs)   bands (ev):

    -0.2384   6.6693   9.2637  11.2084  18.9677

          k = 0.5000-0.5000 0.1000 (   192 PWs)   bands (ev):

     0.9741   3.9945  10.9586  11.1234  16.4456

          k = 0.5000-0.6000 0.2000 (   197 PWs)   bands (ev):

     1.0954   4.4452   8.7662  10.8400  18.8171

          k = 0.5000-0.7000 0.3000 (   196 PWs)   bands (ev):

     1.0875   5.0845   7.5164  10.7824  20.3758

          k = 0.4000-0.6000 0.3000 (   201 PWs)   bands (ev):

     2.2635   3.7065   7.0370  10.6374  20.4890

          k = 0.0000 0.0000 0.3000 (   201 PWs)   bands (ev):

    -2.1616  12.1765  12.1765  14.2771  15.0189

          k = 0.0000-0.1000 0.4000 (   198 PWs)   bands (ev):

    -1.3732   9.6731  10.7813  13.6572  14.5512

          k = 0.0000-0.2000 0.5000 (   195 PWs)   bands (ev):

    -0.2154   6.8300   9.8075  13.0103  15.3828

          k = 0.0000-0.3000 0.6000 (   201 PWs)   bands (ev):

     1.1040   4.6117   9.3128  12.6649  16.4503

          k =-0.1000-0.1000 0.5000 (   199 PWs)   bands (ev):

    -0.3846   8.0083   9.0802  13.7226  13.7323

          k =-0.1000-0.2000 0.6000 (   200 PWs)   bands (ev):

     0.9453   5.6916   8.2106  13.2150  14.7473

          k =-0.1000 0.7000-0.3000 (   202 PWs)   bands (ev):

     1.9962   4.2422   7.9571  13.0349  15.6880

          k =-0.2000 0.8000-0.3000 (   202 PWs)   bands (ev):

     2.4102   4.2884   7.0736  13.8653  14.9196

          k =-0.3000 0.3000 0.3000 (   192 PWs)   bands (ev):

    -0.4183   8.1410   8.1410  10.4849  20.5343

          k = 0.6000-0.6000 0.3000 (   192 PWs)   bands (ev):

     0.9095   5.5781   7.3940   9.9623  21.3597

          k = 0.5000-0.5000 0.3000 (   198 PWs)   bands (ev):

     2.0078   4.0404   7.1435   9.8043  21.5524

          k = 0.5000-0.6000 0.4000 (   197 PWs)   bands (ev):

     2.3993   4.3248   5.9446   9.5822  22.7591

          k = 0.0000 0.0000 0.5000 (   201 PWs)   bands (ev):

    -0.5649   9.3625   9.3625  11.8751  13.5832

          k = 0.0000-0.1000 0.6000 (   200 PWs)   bands (ev):

     0.6302   7.2682   8.3785  11.6583  13.6284

          k = 0.0000-0.2000 0.7000 (   204 PWs)   bands (ev):

     2.0543   5.0692   7.8797  11.8917  14.5544

          k =-0.1000-0.1000 0.7000 (   203 PWs)   bands (ev):

     2.0131   5.9846   7.2736  11.6949  13.5413

          k =-0.1000 0.8000-0.2000 (   208 PWs)   bands (ev):

     3.2599   4.5898   6.9160  12.1906  13.9168

          k = 0.5000-0.5000 0.5000 (   216 PWs)   bands (ev):

     4.0700   4.0700   4.0700   9.2777  24.8647

          k = 0.0000 0.0000 0.7000 (   204 PWs)   bands (ev):

     1.8784   7.3893   7.3893   9.7787  13.0984

          k = 0.0000-0.1000 0.8000 (   206 PWs)   bands (ev):

     3.4294   5.8213   6.8887  10.1234  12.3460

          k =-0.1000 0.9000-0.1000 (   206 PWs)   bands (ev):

     4.9643   4.9643   6.4161  10.6692  10.6692

          k = 0.0000 0.0000 0.9000 (   204 PWs)   bands (ev):

     5.0901   6.3879   6.3879   8.7304   9.9477

     the Fermi energy is     0.6632 ev

!    total energy              =      -0.69496065 Ry
     estimated scf accuracy    <          8.3E-10 Ry
     smearing contrib. (-TS)   =      -0.00007542 Ry
     internal energy E=F+TS    =      -0.69488523 Ry

     The total energy is F=E-TS. E is the sum of the following terms:
     one-electron contribution =       0.42622103 Ry
     hartree contribution      =       0.00111687 Ry
     xc contribution           =      -0.55359286 Ry
     ewald contribution        =      -0.56863027 Ry

     convergence has been achieved in   3 iterations

     Forces acting on atoms (cartesian axes, Ry/au):

     atom    1 type  1   force =     0.00000000    0.00000000    0.00000000

     Total force =     0.000000     Total SCF correction =     0.000000


     Computing stress (Cartesian axis) and pressure

          total   stress  (Ry/bohr**3)                   (kbar)     P=        1.75
   0.00001189  -0.00000000   0.00000000            1.75       -0.00        0.00
  -0.00000000   0.00001189  -0.00000000           -0.00        1.75       -0.00
   0.00000000  -0.00000000   0.00001189            0.00       -0.00        1.75


     Writing all to output data dir ./QE-outdir/li.save/ :
     XML data file, charge density, pseudopotentials, collected wavefunctions

     init_run     :      0.04s CPU      0.06s WALL (       1 calls)
     electrons    :      0.13s CPU      0.22s WALL (       1 calls)
     forces       :      0.00s CPU      0.00s WALL (       1 calls)
     stress       :      0.02s CPU      0.02s WALL (       1 calls)

     Called by init_run:
     wfcinit      :      0.03s CPU      0.04s WALL (       1 calls)
     potinit      :      0.00s CPU      0.00s WALL (       1 calls)
     hinit0       :      0.01s CPU      0.01s WALL (       1 calls)

     Called by electrons:
     c_bands      :      0.12s CPU      0.20s WALL (       4 calls)
     sum_band     :      0.01s CPU      0.01s WALL (       4 calls)
     v_of_rho     :      0.00s CPU      0.00s WALL (       4 calls)
     mix_rho      :      0.00s CPU      0.00s WALL (       4 calls)

     Called by c_bands:
     init_us_2    :      0.01s CPU      0.01s WALL (     484 calls)
     cegterg      :      0.11s CPU      0.19s WALL (     176 calls)

     Called by *egterg:
     cdiaghg      :      0.07s CPU      0.16s WALL (     605 calls)
     h_psi        :      0.05s CPU      0.06s WALL (     693 calls)
     g_psi        :      0.00s CPU      0.00s WALL (     473 calls)

     Called by h_psi:
     h_psi:calbec :      0.00s CPU      0.00s WALL (     693 calls)
     vloc_psi     :      0.05s CPU      0.05s WALL (     693 calls)
                                        0.00s GPU  (     693 calls)
     add_vuspsi   :      0.00s CPU      0.00s WALL (     693 calls)

     General routines
     calbec       :      0.01s CPU      0.01s WALL (    1441 calls)
     fft          :      0.00s CPU      0.00s WALL (      65 calls)
     ffts         :      0.00s CPU      0.00s WALL (       4 calls)
     fftw         :      0.04s CPU      0.04s WALL (    7268 calls)

     Parallel routines

     PWSCF        :      0.20s CPU      0.31s WALL


   This run was terminated on:  14: 5: 3  26Jan2026            

=------------------------------------------------------------------------------=
   JOB DONE.
=------------------------------------------------------------------------------=
